REMARK  Name = 
REMARK  1 active torsions:
REMARK  status: ('A' for Active; 'I' for Inactive)
REMARK    1  A    between atoms: C_4  and  N_5
REMARK                            x       y       z     vdW  Elec       q    Type
REMARK                         _______ _______ _______ _____ _____    ______ ____
ROOT
ATOM      1  N   UNL     1       3.517  -0.441  -0.238  1.00  0.00    +0.000 N 
ATOM      2  C   UNL     1       2.164  -0.170  -0.193  1.00  0.00    +0.000 A 
ATOM      3  N   UNL     1       1.782   1.085  -0.426  1.00  0.00    +0.000 NA
ATOM      4  C   UNL     1       0.468   1.332  -0.365  1.00  0.00    +0.000 A 
ATOM      5  C   UNL     1      -0.482   0.360  -0.040  1.00  0.00    +0.000 A 
ATOM      6  C   UNL     1      -1.877   0.584   0.069  1.00  0.00    +0.000 A 
ATOM      7  C   UNL     1      -2.739  -0.460   0.396  1.00  0.00    +0.000 A 
ATOM      8  C   UNL     1      -2.218  -1.728   0.617  1.00  0.00    +0.000 A 
ATOM      9  C   UNL     1      -0.840  -1.941   0.516  1.00  0.00    +0.000 A 
ATOM     10  C   UNL     1       0.042  -0.914   0.194  1.00  0.00    +0.000 A 
ATOM     11  N   UNL     1       1.351  -1.179   0.121  1.00  0.00    +0.000 NA
ATOM     12  H   UNL     1       4.037   0.404  -0.047  1.00  0.00    +0.000 HD
ATOM     13  H   UNL     1       3.718  -1.248   0.335  1.00  0.00    +0.000 HD
ENDROOT
BRANCH   4  14
ATOM     14  N   UNL     1       0.103   2.659  -0.635  1.00  0.00    +0.000 N 
ATOM     15  H   UNL     1      -0.574   2.701  -1.388  1.00  0.00    +0.000 HD
ATOM     16  H   UNL     1       0.959   3.152  -0.880  1.00  0.00    +0.000 HD
ENDBRANCH   4  14
TORSDOF 1
