REMARK  Name = 
REMARK  8 active torsions:
REMARK  status: ('A' for Active; 'I' for Inactive)
REMARK    1  A    between atoms: C_1  and  C_2
REMARK    2  A    between atoms: C_2  and  N_3
REMARK    3  A    between atoms: N_3  and  C_4
REMARK    4  A    between atoms: N_3  and  C_6
REMARK    5  A    between atoms: C_4  and  C_5
REMARK    6  A    between atoms: C_6  and  C_7
REMARK    7  A    between atoms: C_7  and  N_8
REMARK    8  A    between atoms: N_8  and  C_9
REMARK                            x       y       z     vdW  Elec       q    Type
REMARK                         _______ _______ _______ _____ _____    ______ ____
ROOT
ATOM      1  C   UNL     1       1.540  -0.435  -0.478  1.00  0.00    +0.000 A 
ATOM      2  C   UNL     1       2.244   0.721  -0.918  1.00  0.00    +0.000 A 
ATOM      3  C   UNL     1       1.804   1.596  -1.946  1.00  0.00    +0.000 A 
ATOM      4  C   UNL     1       2.553   2.709  -2.325  1.00  0.00    +0.000 A 
ATOM      5  C   UNL     1       3.754   2.972  -1.685  1.00  0.00    +0.000 A 
ATOM      6  C   UNL     1       4.192   2.121  -0.669  1.00  0.00    +0.000 A 
ATOM      7  C   UNL     1       3.464   1.007  -0.272  1.00  0.00    +0.000 A 
ATOM      8  N   UNL     1       3.963   0.260   0.722  1.00  0.00    +0.000 NA
ATOM      9  C   UNL     1       3.291  -0.821   1.141  1.00  0.00    +0.000 A 
ATOM     10  C   UNL     1       3.833  -1.573   2.175  1.00  0.00    +0.000 A 
ATOM     11  C   UNL     1       3.202  -2.716   2.671  1.00  0.00    +0.000 A 
ATOM     12  C   UNL     1       1.998  -3.128   2.118  1.00  0.00    +0.000 A 
ATOM     13  C   UNL     1       1.436  -2.389   1.079  1.00  0.00    +0.000 A 
ATOM     14  C   UNL     1       2.066  -1.223   0.580  1.00  0.00    +0.000 A 
ENDROOT
BRANCH   1  15
ATOM     15  N   UNL     1       0.254  -0.770  -1.016  1.00  0.00    +0.000 N 
ATOM     16  H   UNL     1       0.218  -0.512  -1.999  1.00  0.00    +0.000 HD
BRANCH  15  17
ATOM     17  C   UNL     1      -0.826  -0.100  -0.265  1.00  0.00    +0.000 C 
BRANCH  17  18
ATOM     18  C   UNL     1      -2.199  -0.571  -0.798  1.00  0.00    +0.000 C 
BRANCH  18  19
ATOM     19  N   UNL     1      -3.406   0.002  -0.171  1.00  0.00    +0.000 NA
BRANCH  19  21
ATOM     20  C   UNL     1      -3.619  -1.845   1.527  1.00  0.00    +0.000 C 
ATOM     21  C   UNL     1      -3.552  -0.345   1.254  1.00  0.00    +0.000 C 
ENDBRANCH  19  21
BRANCH  19  22
ATOM     22  C   UNL     1      -3.532   1.460  -0.342  1.00  0.00    +0.000 C 
ATOM     23  C   UNL     1      -3.571   1.914  -1.797  1.00  0.00    +0.000 C 
ENDBRANCH  19  22
ENDBRANCH  18  19
ENDBRANCH  17  18
ENDBRANCH  15  17
ENDBRANCH   1  15
TORSDOF 6
