REMARK  Name = 
REMARK  4 active torsions:
REMARK  status: ('A' for Active; 'I' for Inactive)
REMARK    1  A    between atoms: C_1  and  C_2
REMARK    2  A    between atoms: C_6  and  C_7
REMARK    3  A    between atoms: C_11  and  C_12
REMARK    4  A    between atoms: C_16  and  C_17
REMARK                            x       y       z     vdW  Elec       q    Type
REMARK                         _______ _______ _______ _____ _____    ______ ____
ROOT
ATOM      1  C   UNL     1       3.798   0.070  -0.089  1.00  0.00    +0.000 A 
ATOM      2  N   UNL     1       2.625  -0.536  -0.176  1.00  0.00    +0.000 NA
ATOM      3  C   UNL     1       1.671   0.433   0.009  1.00  0.00    +0.000 A 
ATOM      4  C   UNL     1       0.273   0.332   0.013  1.00  0.00    +0.000 A 
ATOM      5  C   UNL     1      -0.506   1.483   0.235  1.00  0.00    +0.000 A 
ATOM      6  C   UNL     1       0.138   2.718   0.434  1.00  0.00    +0.000 A 
ATOM      7  C   UNL     1       1.536   2.839   0.431  1.00  0.00    +0.000 A 
ATOM      8  C   UNL     1       2.262   1.669   0.216  1.00  0.00    +0.000 A 
ATOM      9  N   UNL     1       3.608   1.414   0.147  1.00  0.00    +0.000 N 
ATOM     10  H   UNL     1       4.338   2.100   0.248  1.00  0.00    +0.000 HD
ENDROOT
BRANCH   1  16
ATOM     11  C   UNL     1      11.083  -1.105  -0.346  1.00  0.00    +0.000 C 
ATOM     12  C   UNL     1       9.602  -1.097  -0.342  1.00  0.00    +0.000 A 
ATOM     13  N   UNL     1       8.817  -0.062  -0.126  1.00  0.00    +0.000 NA
ATOM     14  C   UNL     1       7.535  -0.543  -0.223  1.00  0.00    +0.000 A 
ATOM     15  C   UNL     1       6.314   0.135  -0.080  1.00  0.00    +0.000 A 
ATOM     16  C   UNL     1       5.110  -0.577  -0.226  1.00  0.00    +0.000 A 
ATOM     17  C   UNL     1       5.161  -1.955  -0.510  1.00  0.00    +0.000 A 
ATOM     18  C   UNL     1       6.370  -2.650  -0.656  1.00  0.00    +0.000 A 
ATOM     19  C   UNL     1       7.535  -1.902  -0.504  1.00  0.00    +0.000 A 
ATOM     20  N   UNL     1       8.864  -2.232  -0.575  1.00  0.00    +0.000 N 
ATOM     21  H   UNL     1       9.235  -3.151  -0.766  1.00  0.00    +0.000 HD
ENDBRANCH   1  16
BRANCH   5  22
ATOM     22  C   UNL     1      -1.968   1.353   0.242  1.00  0.00    +0.000 A 
ATOM     23  N   UNL     1      -2.656   0.318  -0.211  1.00  0.00    +0.000 NA
ATOM     24  C   UNL     1      -3.980   0.611  -0.002  1.00  0.00    +0.000 A 
ATOM     25  C   UNL     1      -5.125  -0.141  -0.302  1.00  0.00    +0.000 A 
ATOM     26  C   UNL     1      -6.399   0.372   0.014  1.00  0.00    +0.000 A 
ATOM     27  C   UNL     1      -6.487   1.636   0.629  1.00  0.00    +0.000 A 
ATOM     28  C   UNL     1      -5.354   2.404   0.937  1.00  0.00    +0.000 A 
ATOM     29  C   UNL     1      -4.120   1.850   0.602  1.00  0.00    +0.000 A 
ATOM     30  N   UNL     1      -2.833   2.297   0.752  1.00  0.00    +0.000 N 
ATOM     31  H   UNL     1      -2.564   3.166   1.184  1.00  0.00    +0.000 HD
BRANCH  26  32
ATOM     32  C   UNL     1      -7.614  -0.404  -0.290  1.00  0.00    +0.000 A 
ATOM     33  C   UNL     1      -7.759  -1.727   0.159  1.00  0.00    +0.000 A 
ATOM     34  C   UNL     1      -8.912  -2.464  -0.127  1.00  0.00    +0.000 A 
ATOM     35  C   UNL     1      -9.941  -1.889  -0.868  1.00  0.00    +0.000 A 
ATOM     36  C   UNL     1      -9.818  -0.579  -1.324  1.00  0.00    +0.000 A 
ATOM     37  C   UNL     1      -8.664   0.157  -1.036  1.00  0.00    +0.000 A 
ENDBRANCH  26  32
ENDBRANCH   5  22
TORSDOF 3
