REMARK  Name = 
REMARK  12 active torsions:
REMARK  status: ('A' for Active; 'I' for Inactive)
REMARK    1  A    between atoms: N_1  and  C_2
REMARK    2  A    between atoms: C_2  and  C_3
REMARK    3  A    between atoms: C_3  and  S_4
REMARK    4  A    between atoms: S_4  and  S_5
REMARK    5  A    between atoms: S_5  and  C_6
REMARK    6  A    between atoms: C_6  and  C_7
REMARK    7  A    between atoms: C_12  and  C_13
REMARK    8  A    between atoms: C_13  and  S_14
REMARK    9  A    between atoms: S_14  and  S_15
REMARK   10  A    between atoms: S_15  and  C_16
REMARK   11  A    between atoms: C_16  and  C_17
REMARK   12  A    between atoms: C_17  and  N_18
REMARK                            x       y       z     vdW  Elec       q    Type
REMARK                         _______ _______ _______ _____ _____    ______ ____
ROOT
ATOM      1  C   UNL     1       0.697  -1.084   0.285  1.00  0.00    +0.000 A 
ATOM      2  C   UNL     1       1.359  -2.317   0.122  1.00  0.00    +0.000 A 
ATOM      3  C   UNL     1       0.775  -3.366  -0.586  1.00  0.00    +0.000 A 
ATOM      4  C   UNL     1      -0.485  -3.204  -1.145  1.00  0.00    +0.000 A 
ATOM      5  C   UNL     1      -1.160  -1.994  -0.995  1.00  0.00    +0.000 A 
ATOM      6  C   UNL     1      -0.589  -0.919  -0.284  1.00  0.00    +0.000 A 
ENDROOT
BRANCH   1   7
ATOM      7  C   UNL     1       1.408   0.007   1.058  1.00  0.00    +0.000 C 
BRANCH   7   8
ATOM      8  S   UNL     1       2.234   1.242  -0.006  1.00  0.00    +0.000 S 
BRANCH   8   9
ATOM      9  S   UNL     1       3.834   0.217  -0.799  1.00  0.00    +0.000 S 
BRANCH   9  10
ATOM     10  C   UNL     1       5.101   0.269   0.523  1.00  0.00    +0.000 C 
BRANCH  10  11
ATOM     11  C   UNL     1       5.779   1.635   0.685  1.00  0.00    +0.000 C 
BRANCH  11  12
ATOM     12  N   UNL     1       4.944   2.623   1.368  1.00  0.00    +0.000 NA
ATOM     13  H   UNL     1       5.388   3.539   1.310  1.00  0.00    +0.000 HD
ATOM     14  H   UNL     1       4.059   2.706   0.860  1.00  0.00    +0.000 HD
ENDBRANCH  11  12
ENDBRANCH  10  11
ENDBRANCH   9  10
ENDBRANCH   8   9
ENDBRANCH   7   8
ENDBRANCH   1   7
BRANCH   6  15
ATOM     15  C   UNL     1      -1.396   0.355  -0.154  1.00  0.00    +0.000 C 
BRANCH  15  16
ATOM     16  S   UNL     1      -2.305   0.483   1.426  1.00  0.00    +0.000 S 
BRANCH  16  17
ATOM     17  S   UNL     1      -3.863  -0.847   1.218  1.00  0.00    +0.000 S 
BRANCH  17  18
ATOM     18  C   UNL     1      -5.257   0.186   0.636  1.00  0.00    +0.000 C 
BRANCH  18  19
ATOM     19  C   UNL     1      -5.045   0.777  -0.759  1.00  0.00    +0.000 C 
BRANCH  19  20
ATOM     20  N   UNL     1      -6.244   1.475  -1.229  1.00  0.00    +0.000 NA
ATOM     21  H   UNL     1      -6.442   2.269  -0.619  1.00  0.00    +0.000 HD
ATOM     22  H   UNL     1      -6.066   1.868  -2.153  1.00  0.00    +0.000 HD
ENDBRANCH  19  20
ENDBRANCH  18  19
ENDBRANCH  17  18
ENDBRANCH  16  17
ENDBRANCH  15  16
ENDBRANCH   6  15
TORSDOF 12
