REMARK  Name = 
REMARK  3 active torsions:
REMARK  status: ('A' for Active; 'I' for Inactive)
REMARK    1  A    between atoms: C_4  and  C_5
REMARK    2  A    between atoms: C_10  and  C_11
REMARK    3  A    between atoms: C_16  and  C_17
REMARK                            x       y       z     vdW  Elec       q    Type
REMARK                         _______ _______ _______ _____ _____    ______ ____
ROOT
ATOM      1  C   UNL     1      -5.115   0.361  -0.522  1.00  0.00    +0.000 A 
ATOM      2  C   UNL     1      -4.692   0.853  -1.772  1.00  0.00    +0.000 A 
ATOM      3  C   UNL     1      -3.338   0.936  -2.130  1.00  0.00    +0.000 A 
ATOM      4  C   UNL     1      -2.418   0.504  -1.177  1.00  0.00    +0.000 A 
ATOM      5  N   UNL     1      -1.049   0.436  -1.175  1.00  0.00    +0.000 N 
ATOM      6  C   UNL     1      -0.626  -0.072   0.034  1.00  0.00    +0.000 A 
ATOM      7  N   UNL     1      -1.674  -0.343   0.793  1.00  0.00    +0.000 NA
ATOM      8  C   UNL     1      -2.782   0.011   0.066  1.00  0.00    +0.000 A 
ATOM      9  C   UNL     1      -4.142  -0.064   0.404  1.00  0.00    +0.000 A 
ATOM     10  H   UNL     1      -0.452   0.696  -1.943  1.00  0.00    +0.000 HD
ENDROOT
BRANCH   6  11
ATOM     11  C   UNL     1       0.780  -0.296   0.397  1.00  0.00    +0.000 A 
ATOM     12  C   UNL     1       1.067  -1.115   1.504  1.00  0.00    +0.000 A 
ATOM     13  C   UNL     1       2.383  -1.381   1.910  1.00  0.00    +0.000 A 
ATOM     14  C   UNL     1       3.433  -0.802   1.188  1.00  0.00    +0.000 A 
ATOM     15  N   UNL     1       4.788  -0.900   1.374  1.00  0.00    +0.000 NA
ATOM     16  C   UNL     1       5.350  -0.156   0.437  1.00  0.00    +0.000 A 
ATOM     17  N   UNL     1       4.373   0.411  -0.351  1.00  0.00    +0.000 N 
ATOM     18  C   UNL     1       3.142   0.013   0.105  1.00  0.00    +0.000 A 
ATOM     19  C   UNL     1       1.838   0.292  -0.324  1.00  0.00    +0.000 A 
ATOM     20  H   UNL     1       4.536   1.015  -1.141  1.00  0.00    +0.000 HD
BRANCH  16  21
ATOM     21  C   UNL     1       6.794   0.037   0.246  1.00  0.00    +0.000 A 
ATOM     22  C   UNL     1       7.323   0.937  -0.691  1.00  0.00    +0.000 A 
ATOM     23  C   UNL     1       8.707   1.085  -0.838  1.00  0.00    +0.000 A 
ATOM     24  C   UNL     1       9.579   0.338  -0.050  1.00  0.00    +0.000 A 
ATOM     25  C   UNL     1       9.071  -0.556   0.887  1.00  0.00    +0.000 A 
ATOM     26  C   UNL     1       7.690  -0.704   1.033  1.00  0.00    +0.000 A 
ENDBRANCH  16  21
ENDBRANCH   6  11
BRANCH   1  30
ATOM     27  C   UNL     1      -9.291   0.147   0.451  1.00  0.00    +0.000 A 
ATOM     28  C   UNL     1      -8.488  -0.985   0.566  1.00  0.00    +0.000 A 
ATOM     29  C   UNL     1      -7.129  -0.914   0.249  1.00  0.00    +0.000 A 
ATOM     30  C   UNL     1      -6.548   0.288  -0.188  1.00  0.00    +0.000 A 
ATOM     31  C   UNL     1      -7.376   1.418  -0.296  1.00  0.00    +0.000 A 
ATOM     32  C   UNL     1      -8.736   1.349   0.021  1.00  0.00    +0.000 A 
ENDBRANCH   1  30
TORSDOF 3
