REMARK  Name = 
REMARK  9 active torsions:
REMARK  status: ('A' for Active; 'I' for Inactive)
REMARK    1  A    between atoms: C_4  and  C_5
REMARK    2  A    between atoms: C_8  and  O_9
REMARK    3  A    between atoms: C_10  and  C_11
REMARK    4  A    between atoms: C_13  and  C_14
REMARK    5  A    between atoms: C_19  and  O_20
REMARK    6  A    between atoms: C_22  and  O_23
REMARK    7  A    between atoms: C_29  and  O_30
REMARK    8  A    between atoms: C_35  and  O_36
REMARK    9  A    between atoms: C_38  and  O_39
REMARK                            x       y       z     vdW  Elec       q    Type
REMARK                         _______ _______ _______ _____ _____    ______ ____
ROOT
ATOM      1  C   UNL     1       2.917  -0.533  -1.678  1.00  0.00    +0.000 A 
ATOM      2  C   UNL     1       3.365  -0.170  -2.953  1.00  0.00    +0.000 A 
ATOM      3  C   UNL     1       2.492  -0.188  -4.040  1.00  0.00    +0.000 A 
ATOM      4  C   UNL     1       1.160  -0.555  -3.860  1.00  0.00    +0.000 A 
ATOM      5  C   UNL     1       0.668  -0.916  -2.596  1.00  0.00    +0.000 A 
ATOM      6  C   UNL     1       1.571  -0.901  -1.513  1.00  0.00    +0.000 A 
ENDROOT
BRANCH   1  10
ATOM      7  O   UNL     1       5.059  -2.339   2.231  1.00  0.00    +0.000 OA
ATOM      8  C   UNL     1       4.909  -1.421   1.431  1.00  0.00    +0.000 A 
ATOM      9  C   UNL     1       3.965  -1.525   0.309  1.00  0.00    +0.000 A 
ATOM     10  C   UNL     1       3.844  -0.490  -0.534  1.00  0.00    +0.000 A 
ATOM     11  O   UNL     1       4.563   0.689  -0.435  1.00  0.00    +0.000 OA
ATOM     12  C   UNL     1       5.443   0.831   0.610  1.00  0.00    +0.000 A 
ATOM     13  C   UNL     1       6.130   2.043   0.695  1.00  0.00    +0.000 A 
ATOM     14  C   UNL     1       7.034   2.239   1.737  1.00  0.00    +0.000 A 
ATOM     15  C   UNL     1       7.264   1.247   2.685  1.00  0.00    +0.000 A 
ATOM     16  C   UNL     1       6.574   0.041   2.595  1.00  0.00    +0.000 A 
ATOM     17  C   UNL     1       5.661  -0.168   1.557  1.00  0.00    +0.000 A 
BRANCH  14  18
ATOM     18  O   UNL     1       7.724   3.409   1.865  1.00  0.00    +0.000 OA
ATOM     19  H   UNL     1       7.446   4.026   1.167  1.00  0.00    +0.000 HD
ENDBRANCH  14  18
BRANCH  16  20
ATOM     20  O   UNL     1       6.837  -0.898   3.557  1.00  0.00    +0.000 OA
ATOM     21  H   UNL     1       6.280  -1.687   3.378  1.00  0.00    +0.000 HD
ENDBRANCH  16  20
ENDBRANCH   1  10
BRANCH   5  22
ATOM     22  C   UNL     1      -0.740  -1.284  -2.360  1.00  0.00    +0.000 A 
ATOM     23  C   UNL     1      -1.538  -0.466  -1.532  1.00  0.00    +0.000 A 
ATOM     24  C   UNL     1      -2.897  -0.740  -1.290  1.00  0.00    +0.000 A 
ATOM     25  C   UNL     1      -3.454  -1.881  -1.886  1.00  0.00    +0.000 A 
ATOM     26  C   UNL     1      -2.684  -2.710  -2.704  1.00  0.00    +0.000 A 
ATOM     27  C   UNL     1      -1.343  -2.414  -2.933  1.00  0.00    +0.000 A 
BRANCH  24  28
ATOM     28  C   UNL     1      -3.724   0.118  -0.409  1.00  0.00    +0.000 A 
ATOM     29  C   UNL     1      -3.528   1.442  -0.311  1.00  0.00    +0.000 A 
ATOM     30  C   UNL     1      -4.374   2.227   0.599  1.00  0.00    +0.000 A 
ATOM     31  O   UNL     1      -4.210   3.432   0.746  1.00  0.00    +0.000 OA
ATOM     32  C   UNL     1      -5.422   1.507   1.329  1.00  0.00    +0.000 A 
ATOM     33  C   UNL     1      -6.289   2.162   2.208  1.00  0.00    +0.000 A 
ATOM     34  C   UNL     1      -7.278   1.444   2.872  1.00  0.00    +0.000 A 
ATOM     35  C   UNL     1      -7.394   0.074   2.655  1.00  0.00    +0.000 A 
ATOM     36  C   UNL     1      -6.532  -0.591   1.787  1.00  0.00    +0.000 A 
ATOM     37  C   UNL     1      -5.541   0.134   1.124  1.00  0.00    +0.000 A 
ATOM     38  O   UNL     1      -4.716  -0.570   0.284  1.00  0.00    +0.000 OA
BRANCH  33  39
ATOM     39  O   UNL     1      -6.221   3.506   2.458  1.00  0.00    +0.000 OA
ATOM     40  H   UNL     1      -5.481   3.881   1.930  1.00  0.00    +0.000 HD
ENDBRANCH  33  39
BRANCH  35  41
ATOM     41  O   UNL     1      -8.378  -0.592   3.323  1.00  0.00    +0.000 OA
ATOM     42  H   UNL     1      -8.364  -1.528   3.067  1.00  0.00    +0.000 HD
ENDBRANCH  35  41
ENDBRANCH  24  28
BRANCH  27  43
ATOM     43  O   UNL     1      -0.672  -3.280  -3.752  1.00  0.00    +0.000 OA
ATOM     44  H   UNL     1       0.281  -3.078  -3.731  1.00  0.00    +0.000 HD
ENDBRANCH  27  43
ENDBRANCH   5  22
BRANCH   4  45
ATOM     45  O   UNL     1       0.385  -0.535  -4.987  1.00  0.00    +0.000 OA
ATOM     46  H   UNL     1      -0.529  -0.783  -4.768  1.00  0.00    +0.000 HD
ENDBRANCH   4  45
TORSDOF 9
