REMARK  Name = 
REMARK  5 active torsions:
REMARK  status: ('A' for Active; 'I' for Inactive)
REMARK    1  A    between atoms: N_1  and  C_2
REMARK    2  A    between atoms: C_2  and  C_3
REMARK    3  A    between atoms: C_3  and  S_4
REMARK    4  A    between atoms: S_4  and  S_5
REMARK    5  A    between atoms: S_5  and  C_6
REMARK                            x       y       z     vdW  Elec       q    Type
REMARK                         _______ _______ _______ _____ _____    ______ ____
ROOT
ATOM      1  S   UNL     1       0.226   1.688   0.356  1.00  0.00    +0.000 S 
ENDROOT
BRANCH   1   2
ATOM      2  C   UNL     1      -1.260   0.700   0.404  1.00  0.00    +0.000 A 
ATOM      3  C   UNL     1      -1.855   0.347   1.620  1.00  0.00    +0.000 A 
ATOM      4  C   UNL     1      -3.023  -0.419   1.637  1.00  0.00    +0.000 A 
ATOM      5  C   UNL     1      -3.605  -0.830   0.438  1.00  0.00    +0.000 A 
ATOM      6  C   UNL     1      -3.023  -0.473  -0.777  1.00  0.00    +0.000 A 
ATOM      7  C   UNL     1      -1.855   0.292  -0.794  1.00  0.00    +0.000 A 
ENDBRANCH   1   2
BRANCH   1   8
ATOM      8  S   UNL     1       1.595   0.475   1.301  1.00  0.00    +0.000 S 
BRANCH   8   9
ATOM      9  C   UNL     1       2.129  -0.665  -0.029  1.00  0.00    +0.000 C 
BRANCH   9  10
ATOM     10  C   UNL     1       2.902   0.017  -1.165  1.00  0.00    +0.000 C 
BRANCH  10  11
ATOM     11  N   UNL     1       4.150   0.638  -0.715  1.00  0.00    +0.000 NA
ATOM     12  H   UNL     1       4.547   1.189  -1.475  1.00  0.00    +0.000 HD
ATOM     13  H   UNL     1       3.936   1.300   0.034  1.00  0.00    +0.000 HD
ENDBRANCH  10  11
ENDBRANCH   9  10
ENDBRANCH   8   9
ENDBRANCH   1   8
TORSDOF 5
