REMARK  Name = 
REMARK  4 active torsions:
REMARK  status: ('A' for Active; 'I' for Inactive)
REMARK    1  A    between atoms: C_4  and  C_5
REMARK    2  A    between atoms: C_8  and  O_9
REMARK    3  A    between atoms: C_15  and  O_16
REMARK    4  A    between atoms: C_18  and  O_19
REMARK                            x       y       z     vdW  Elec       q    Type
REMARK                         _______ _______ _______ _____ _____    ______ ____
ROOT
ATOM      1  O   UNL     1       2.018   2.363  -1.935  1.00  0.00    +0.000 OA
ATOM      2  C   UNL     1       1.506   1.496  -1.236  1.00  0.00    +0.000 A 
ATOM      3  C   UNL     1       0.054   1.268  -1.234  1.00  0.00    +0.000 A 
ATOM      4  C   UNL     1      -0.453   0.311  -0.442  1.00  0.00    +0.000 A 
ATOM      5  O   UNL     1       0.308  -0.507   0.379  1.00  0.00    +0.000 OA
ATOM      6  C   UNL     1       1.669  -0.322   0.408  1.00  0.00    +0.000 A 
ATOM      7  C   UNL     1       2.401  -1.156   1.255  1.00  0.00    +0.000 A 
ATOM      8  C   UNL     1       3.785  -1.010   1.321  1.00  0.00    +0.000 A 
ATOM      9  C   UNL     1       4.443  -0.050   0.558  1.00  0.00    +0.000 A 
ATOM     10  C   UNL     1       3.707   0.778  -0.285  1.00  0.00    +0.000 A 
ATOM     11  C   UNL     1       2.318   0.643  -0.361  1.00  0.00    +0.000 A 
ENDROOT
BRANCH   4  12
ATOM     12  C   UNL     1      -1.900   0.028  -0.401  1.00  0.00    +0.000 A 
ATOM     13  C   UNL     1      -2.849   1.061  -0.325  1.00  0.00    +0.000 A 
ATOM     14  C   UNL     1      -4.217   0.775  -0.276  1.00  0.00    +0.000 A 
ATOM     15  C   UNL     1      -4.640  -0.549  -0.299  1.00  0.00    +0.000 A 
ATOM     16  C   UNL     1      -3.720  -1.587  -0.365  1.00  0.00    +0.000 A 
ATOM     17  C   UNL     1      -2.354  -1.300  -0.413  1.00  0.00    +0.000 A 
BRANCH  15  18
ATOM     18  O   UNL     1      -5.963  -0.874  -0.253  1.00  0.00    +0.000 OA
ATOM     19  H   UNL     1      -6.485  -0.056  -0.209  1.00  0.00    +0.000 HD
ENDBRANCH  15  18
ENDBRANCH   4  12
BRANCH   8  20
ATOM     20  O   UNL     1       4.542  -1.801   2.135  1.00  0.00    +0.000 OA
ATOM     21  H   UNL     1       3.963  -2.420   2.610  1.00  0.00    +0.000 HD
ENDBRANCH   8  20
BRANCH  10  22
ATOM     22  O   UNL     1       4.406   1.704  -1.012  1.00  0.00    +0.000 OA
ATOM     23  H   UNL     1       3.767   2.214  -1.559  1.00  0.00    +0.000 HD
ENDBRANCH  10  22
TORSDOF 4
