REMARK  Name = 
REMARK  2 active torsions:
REMARK  status: ('A' for Active; 'I' for Inactive)
REMARK    1  A    between atoms: N_1  and  C_2
REMARK    2  A    between atoms: C_13  and  C_14
REMARK                            x       y       z     vdW  Elec       q    Type
REMARK                         _______ _______ _______ _____ _____    ______ ____
ROOT
ATOM      1  C   UNL     1       1.672   0.445   1.024  1.00  0.00    +0.000 A 
ATOM      2  C   UNL     1       3.023   0.531   0.596  1.00  0.00    +0.000 A 
ATOM      3  C   UNL     1       4.133   0.721   1.461  1.00  0.00    +0.000 A 
ATOM      4  C   UNL     1       5.433   0.813   0.964  1.00  0.00    +0.000 A 
ATOM      5  C   UNL     1       5.651   0.714  -0.401  1.00  0.00    +0.000 A 
ATOM      6  C   UNL     1       4.567   0.517  -1.258  1.00  0.00    +0.000 A 
ATOM      7  C   UNL     1       3.264   0.418  -0.788  1.00  0.00    +0.000 A 
ATOM      8  N   UNL     1       2.293   0.203  -1.686  1.00  0.00    +0.000 NA
ATOM      9  C   UNL     1       1.027   0.067  -1.269  1.00  0.00    +0.000 A 
ATOM     10  C   UNL     1       0.046  -0.191  -2.216  1.00  0.00    +0.000 A 
ATOM     11  C   UNL     1      -1.298  -0.359  -1.864  1.00  0.00    +0.000 A 
ATOM     12  C   UNL     1      -1.702  -0.267  -0.529  1.00  0.00    +0.000 A 
ATOM     13  C   UNL     1      -0.712  -0.003   0.428  1.00  0.00    +0.000 A 
ATOM     14  C   UNL     1       0.653   0.164   0.080  1.00  0.00    +0.000 A 
ENDROOT
BRANCH  12  15
ATOM     15  C   UNL     1      -3.113  -0.435  -0.144  1.00  0.00    +0.000 A 
ATOM     16  C   UNL     1      -3.767   0.523   0.648  1.00  0.00    +0.000 A 
ATOM     17  C   UNL     1      -5.107   0.366   1.013  1.00  0.00    +0.000 A 
ATOM     18  C   UNL     1      -5.817  -0.756   0.593  1.00  0.00    +0.000 A 
ATOM     19  C   UNL     1      -5.189  -1.719  -0.192  1.00  0.00    +0.000 A 
ATOM     20  C   UNL     1      -3.849  -1.559  -0.557  1.00  0.00    +0.000 A 
ENDBRANCH  12  15
BRANCH   1  21
ATOM     21  N   UNL     1       1.339   0.424   2.410  1.00  0.00    +0.000 N 
ATOM     22  H   UNL     1       1.990   0.951   2.982  1.00  0.00    +0.000 HD
ATOM     23  H   UNL     1       1.288  -0.539   2.738  1.00  0.00    +0.000 HD
ENDBRANCH   1  21
TORSDOF 2
