REMARK  Name = 
REMARK  5 active torsions:
REMARK  status: ('A' for Active; 'I' for Inactive)
REMARK    1  A    between atoms: C_1  and  C_2
REMARK    2  A    between atoms: C_2  and  C_3
REMARK    3  A    between atoms: C_5  and  O_6
REMARK    4  A    between atoms: C_8  and  C_9
REMARK    5  A    between atoms: C_8  and  C_10
REMARK                            x       y       z     vdW  Elec       q    Type
REMARK                         _______ _______ _______ _____ _____    ______ ____
ROOT
ATOM      1  C   UNL     1       2.404  -0.068  -1.379  1.00  0.00    +0.000 C 
ATOM      2  C   UNL     1       1.296  -0.124  -0.306  1.00  0.00    +0.000 C 
ATOM      3  C   UNL     1       1.771  -1.101   0.784  1.00  0.00    +0.000 C 
ATOM      4  C   UNL     1       1.103   1.293   0.262  1.00  0.00    +0.000 C 
ATOM      5  C   UNL     1      -0.191   1.427   1.055  1.00  0.00    +0.000 C 
ATOM      6  C   UNL     1      -1.373   1.027   0.180  1.00  0.00    +0.000 C 
ATOM      7  C   UNL     1      -1.224  -0.395  -0.389  1.00  0.00    +0.000 C 
ATOM      8  C   UNL     1      -1.549  -1.458   0.676  1.00  0.00    +0.000 C 
ATOM      9  C   UNL     1      -2.247  -0.568  -1.532  1.00  0.00    +0.000 C 
ATOM     10  N   UNL     1       0.095  -0.610  -0.999  1.00  0.00    +0.000 NA
ATOM     11  H   UNL     1       0.209  -1.585  -1.277  1.00  0.00    +0.000 HD
ENDROOT
BRANCH   5  12
ATOM     12  O   UNL     1      -0.351   2.778   1.487  1.00  0.00    +0.000 OA
ATOM     13  H   UNL     1      -0.385   3.341   0.695  1.00  0.00    +0.000 HD
ENDBRANCH   5  12
TORSDOF 1
