REMARK  Name = 
REMARK  2 active torsions:
REMARK  status: ('A' for Active; 'I' for Inactive)
REMARK    1  A    between atoms: C_4  and  C_5
REMARK    2  A    between atoms: C_11  and  C_12
REMARK                            x       y       z     vdW  Elec       q    Type
REMARK                         _______ _______ _______ _____ _____    ______ ____
ROOT
ATOM      1  C   UNL     1       3.252   0.398   0.256  1.00  0.00    +0.000 A 
ATOM      2  N   UNL     1       2.617  -0.741   0.479  1.00  0.00    +0.000 NA
ATOM      3  C   UNL     1       1.282  -0.488   0.288  1.00  0.00    +0.000 A 
ATOM      4  C   UNL     1       0.177  -1.336   0.393  1.00  0.00    +0.000 A 
ATOM      5  C   UNL     1      -1.106  -0.840   0.147  1.00  0.00    +0.000 A 
ATOM      6  N   UNL     1      -2.324  -1.471   0.187  1.00  0.00    +0.000 NA
ATOM      7  C   UNL     1      -3.231  -0.559  -0.127  1.00  0.00    +0.000 A 
ATOM      8  N   UNL     1      -2.611   0.648  -0.367  1.00  0.00    +0.000 N 
ATOM      9  C   UNL     1      -1.260   0.495  -0.200  1.00  0.00    +0.000 A 
ATOM     10  C   UNL     1      -0.181   1.367  -0.314  1.00  0.00    +0.000 A 
ATOM     11  C   UNL     1       1.084   0.841  -0.062  1.00  0.00    +0.000 A 
ATOM     12  N   UNL     1       2.343   1.379  -0.075  1.00  0.00    +0.000 N 
ATOM     13  H   UNL     1      -3.074   1.504  -0.625  1.00  0.00    +0.000 HD
ATOM     14  H   UNL     1       2.567   2.337  -0.292  1.00  0.00    +0.000 HD
ENDROOT
BRANCH   1  18
ATOM     15  C   UNL     1       7.501   0.890   0.540  1.00  0.00    +0.000 A 
ATOM     16  C   UNL     1       6.910  -0.344   0.791  1.00  0.00    +0.000 A 
ATOM     17  C   UNL     1       5.523  -0.486   0.694  1.00  0.00    +0.000 A 
ATOM     18  C   UNL     1       4.705   0.600   0.345  1.00  0.00    +0.000 A 
ATOM     19  C   UNL     1       5.318   1.837   0.096  1.00  0.00    +0.000 A 
ATOM     20  C   UNL     1       6.707   1.980   0.193  1.00  0.00    +0.000 A 
ENDBRANCH   1  18
BRANCH   7  21
ATOM     21  C   UNL     1      -4.680  -0.785  -0.209  1.00  0.00    +0.000 A 
ATOM     22  C   UNL     1      -5.186  -2.067   0.061  1.00  0.00    +0.000 A 
ATOM     23  C   UNL     1      -6.556  -2.332  -0.004  1.00  0.00    +0.000 A 
ATOM     24  C   UNL     1      -7.445  -1.316  -0.342  1.00  0.00    +0.000 A 
ATOM     25  C   UNL     1      -6.963  -0.038  -0.614  1.00  0.00    +0.000 A 
ATOM     26  C   UNL     1      -5.591   0.227  -0.548  1.00  0.00    +0.000 A 
ENDBRANCH   7  21
TORSDOF 2
