REMARK  Name = 
REMARK  2 active torsions:
REMARK  status: ('A' for Active; 'I' for Inactive)
REMARK    1  A    between atoms: C_1  and  C_2
REMARK    2  A    between atoms: C_6  and  N_7
REMARK                            x       y       z     vdW  Elec       q    Type
REMARK                         _______ _______ _______ _____ _____    ______ ____
ROOT
ATOM      1  C   UNL     1      -4.549   0.536   0.695  1.00  0.00    +0.000 C 
ATOM      2  C   UNL     1      -3.144   0.053   0.494  1.00  0.00    +0.000 A 
ATOM      3  C   UNL     1      -2.841  -1.303   0.548  1.00  0.00    +0.000 A 
ATOM      4  C   UNL     1      -1.521  -1.727   0.388  1.00  0.00    +0.000 A 
ATOM      5  C   UNL     1      -0.465  -0.805   0.177  1.00  0.00    +0.000 A 
ATOM      6  C   UNL     1       0.897  -1.167  -0.025  1.00  0.00    +0.000 A 
ATOM      7  C   UNL     1       1.890  -0.149  -0.076  1.00  0.00    +0.000 A 
ATOM      8  C   UNL     1       3.288  -0.387  -0.134  1.00  0.00    +0.000 A 
ATOM      9  C   UNL     1       4.205   0.662  -0.213  1.00  0.00    +0.000 A 
ATOM     10  C   UNL     1       3.744   1.968  -0.234  1.00  0.00    +0.000 A 
ATOM     11  C   UNL     1       2.372   2.214  -0.163  1.00  0.00    +0.000 A 
ATOM     12  C   UNL     1       1.442   1.186  -0.076  1.00  0.00    +0.000 A 
ATOM     13  N   UNL     1       0.150   1.525   0.013  1.00  0.00    +0.000 NA
ATOM     14  C   UNL     1      -0.775   0.567   0.161  1.00  0.00    +0.000 A 
ATOM     15  C   UNL     1      -2.097   0.967   0.315  1.00  0.00    +0.000 A 
ENDROOT
BRANCH   6  16
ATOM     16  N   UNL     1       1.284  -2.537   0.018  1.00  0.00    +0.000 N 
ATOM     17  H   UNL     1       2.147  -2.719  -0.483  1.00  0.00    +0.000 HD
ATOM     18  H   UNL     1       0.555  -3.162  -0.312  1.00  0.00    +0.000 HD
ENDBRANCH   6  16
TORSDOF 1
