REMARK  Name = 
REMARK  4 active torsions:
REMARK  status: ('A' for Active; 'I' for Inactive)
REMARK    1  A    between atoms: C_1  and  C_2
REMARK    2  A    between atoms: C_5  and  C_6
REMARK    3  A    between atoms: C_11  and  O_12
REMARK    4  A    between atoms: C_14  and  O_15
REMARK                            x       y       z     vdW  Elec       q    Type
REMARK                         _______ _______ _______ _____ _____    ______ ____
ROOT
ATOM      1  C   UNL     1       0.121   0.541  -0.149  1.00  0.00    +0.000 A 
ATOM      2  C   UNL     1      -0.403   1.773  -0.122  1.00  0.00    +0.000 A 
ATOM      3  C   UNL     1      -1.866   1.945  -0.061  1.00  0.00    +0.000 A 
ATOM      4  O   UNL     1      -2.325   3.079  -0.029  1.00  0.00    +0.000 OA
ATOM      5  C   UNL     1      -2.678   0.707  -0.042  1.00  0.00    +0.000 A 
ATOM      6  C   UNL     1      -4.079   0.705   0.016  1.00  0.00    +0.000 A 
ATOM      7  C   UNL     1      -4.789  -0.501   0.030  1.00  0.00    +0.000 A 
ATOM      8  C   UNL     1      -4.090  -1.703  -0.013  1.00  0.00    +0.000 A 
ATOM      9  C   UNL     1      -2.703  -1.720  -0.070  1.00  0.00    +0.000 A 
ATOM     10  C   UNL     1      -1.998  -0.514  -0.084  1.00  0.00    +0.000 A 
ATOM     11  O   UNL     1      -0.631  -0.620  -0.142  1.00  0.00    +0.000 OA
ENDROOT
BRANCH   1  16
ATOM     12  C   UNL     1       5.838  -0.419  -0.413  1.00  0.00    +0.000 C 
ATOM     13  C   UNL     1       4.364  -0.148  -0.363  1.00  0.00    +0.000 A 
ATOM     14  C   UNL     1       3.475  -0.910  -1.127  1.00  0.00    +0.000 A 
ATOM     15  C   UNL     1       2.098  -0.678  -1.056  1.00  0.00    +0.000 A 
ATOM     16  C   UNL     1       1.579   0.318  -0.217  1.00  0.00    +0.000 A 
ATOM     17  C   UNL     1       2.473   1.063   0.565  1.00  0.00    +0.000 A 
ATOM     18  C   UNL     1       3.851   0.831   0.495  1.00  0.00    +0.000 A 
ENDBRANCH   1  16
BRANCH   6  19
ATOM     19  O   UNL     1      -4.778   1.878   0.059  1.00  0.00    +0.000 OA
ATOM     20  H   UNL     1      -5.732   1.712   0.095  1.00  0.00    +0.000 HD
ENDBRANCH   6  19
BRANCH   8  21
ATOM     21  O   UNL     1      -4.736  -2.904  -0.002  1.00  0.00    +0.000 OA
ATOM     22  H   UNL     1      -5.695  -2.755   0.043  1.00  0.00    +0.000 HD
ENDBRANCH   8  21
TORSDOF 3
