REMARK  Name = 
REMARK  3 active torsions:
REMARK  status: ('A' for Active; 'I' for Inactive)
REMARK    1  A    between atoms: C_4  and  C_5
REMARK    2  A    between atoms: C_15  and  O_16
REMARK    3  A    between atoms: C_18  and  O_19
REMARK                            x       y       z     vdW  Elec       q    Type
REMARK                         _______ _______ _______ _____ _____    ______ ____
ROOT
ATOM      1  O   UNL     1       1.847   2.503  -1.556  1.00  0.00    +0.000 OA
ATOM      2  C   UNL     1       1.300   1.569  -0.981  1.00  0.00    +0.000 A 
ATOM      3  C   UNL     1      -0.158   1.388  -1.018  1.00  0.00    +0.000 A 
ATOM      4  C   UNL     1      -0.701   0.352  -0.362  1.00  0.00    +0.000 A 
ATOM      5  O   UNL     1       0.028  -0.590   0.349  1.00  0.00    +0.000 OA
ATOM      6  C   UNL     1       1.392  -0.453   0.408  1.00  0.00    +0.000 A 
ATOM      7  C   UNL     1       2.096  -1.411   1.138  1.00  0.00    +0.000 A 
ATOM      8  C   UNL     1       3.482  -1.320   1.230  1.00  0.00    +0.000 A 
ATOM      9  C   UNL     1       4.179  -0.289   0.605  1.00  0.00    +0.000 A 
ATOM     10  C   UNL     1       3.471   0.664  -0.123  1.00  0.00    +0.000 A 
ATOM     11  C   UNL     1       2.078   0.583  -0.222  1.00  0.00    +0.000 A 
ENDROOT
BRANCH   4  12
ATOM     12  C   UNL     1      -2.157   0.108  -0.368  1.00  0.00    +0.000 A 
ATOM     13  C   UNL     1      -3.078   1.153  -0.192  1.00  0.00    +0.000 A 
ATOM     14  C   UNL     1      -4.454   0.900  -0.189  1.00  0.00    +0.000 A 
ATOM     15  C   UNL     1      -4.920  -0.402  -0.356  1.00  0.00    +0.000 A 
ATOM     16 CL   UNL     1      -6.611  -0.713  -0.353  1.00  0.00    +0.000 Cl
ATOM     17  C   UNL     1      -4.022  -1.453  -0.523  1.00  0.00    +0.000 A 
ATOM     18  C   UNL     1      -2.647  -1.198  -0.525  1.00  0.00    +0.000 A 
ENDBRANCH   4  12
BRANCH   8  19
ATOM     19  O   UNL     1       4.131  -2.277   1.953  1.00  0.00    +0.000 OA
ATOM     20  H   UNL     1       5.085  -2.091   1.936  1.00  0.00    +0.000 HD
ENDBRANCH   8  19
BRANCH  10  21
ATOM     21  O   UNL     1       4.204   1.655  -0.717  1.00  0.00    +0.000 OA
ATOM     22  H   UNL     1       3.584   2.253  -1.194  1.00  0.00    +0.000 HD
ENDBRANCH  10  21
TORSDOF 3
