REMARK  Name = 
REMARK  2 active torsions:
REMARK  status: ('A' for Active; 'I' for Inactive)
REMARK    1  A    between atoms: C_6  and  C_7
REMARK    2  A    between atoms: C_12  and  C_13
REMARK                            x       y       z     vdW  Elec       q    Type
REMARK                         _______ _______ _______ _____ _____    ______ ____
ROOT
ATOM      1  C   UNL     1      -0.645  -0.274  -0.424  1.00  0.00    +0.000 A 
ATOM      2  C   UNL     1      -0.085  -1.043  -1.461  1.00  0.00    +0.000 A 
ATOM      3  C   UNL     1       1.298  -1.214  -1.611  1.00  0.00    +0.000 A 
ATOM      4  C   UNL     1       2.105  -0.578  -0.671  1.00  0.00    +0.000 A 
ATOM      5  N   UNL     1       3.463  -0.519  -0.502  1.00  0.00    +0.000 N 
ATOM      6  C   UNL     1       3.724   0.257   0.596  1.00  0.00    +0.000 A 
ATOM      7  N   UNL     1       2.614   0.700   1.144  1.00  0.00    +0.000 NA
ATOM      8  C   UNL     1       1.600   0.191   0.369  1.00  0.00    +0.000 A 
ATOM      9  C   UNL     1       0.211   0.350   0.502  1.00  0.00    +0.000 A 
ATOM     10  H   UNL     1       4.157  -0.966  -1.082  1.00  0.00    +0.000 HD
ENDROOT
BRANCH   1  16
ATOM     11  C   UNL     1      -6.620  -0.131  -0.608  1.00  0.00    +0.000 A 
ATOM     12  C   UNL     1      -6.494   0.674   0.527  1.00  0.00    +0.000 A 
ATOM     13  C   UNL     1      -5.238   0.995   1.057  1.00  0.00    +0.000 A 
ATOM     14  C   UNL     1      -4.128   0.469   0.393  1.00  0.00    +0.000 A 
ATOM     15  N   UNL     1      -2.780   0.570   0.620  1.00  0.00    +0.000 N 
ATOM     16  C   UNL     1      -2.107  -0.150  -0.344  1.00  0.00    +0.000 A 
ATOM     17  N   UNL     1      -2.975  -0.703  -1.175  1.00  0.00    +0.000 NA
ATOM     18  C   UNL     1      -4.221  -0.332  -0.736  1.00  0.00    +0.000 A 
ATOM     19  C   UNL     1      -5.487  -0.643  -1.253  1.00  0.00    +0.000 A 
ATOM     20  H   UNL     1      -2.354   1.087   1.372  1.00  0.00    +0.000 HD
ENDBRANCH   1  16
BRANCH   6  21
ATOM     21  C   UNL     1       5.131   0.597   1.161  1.00  0.00    +0.000 C 
ATOM     22  C   UNL     1       6.237  -0.422   1.100  1.00  0.00    +0.000 C 
ATOM     23  C   UNL     1       6.293   0.798   0.225  1.00  0.00    +0.000 C 
ENDBRANCH   6  21
TORSDOF 2
