REMARK  Name = 
REMARK  3 active torsions:
REMARK  status: ('A' for Active; 'I' for Inactive)
REMARK    1  A    between atoms: C_4  and  C_5
REMARK    2  A    between atoms: C_15  and  O_16
REMARK    3  A    between atoms: C_18  and  O_19
REMARK                            x       y       z     vdW  Elec       q    Type
REMARK                         _______ _______ _______ _____ _____    ______ ____
ROOT
ATOM      1  O   UNL     1       1.831   2.528  -1.552  1.00  0.00    +0.000 OA
ATOM      2  C   UNL     1       1.294   1.588  -0.977  1.00  0.00    +0.000 A 
ATOM      3  C   UNL     1      -0.162   1.388  -1.018  1.00  0.00    +0.000 A 
ATOM      4  C   UNL     1      -0.693   0.345  -0.364  1.00  0.00    +0.000 A 
ATOM      5  O   UNL     1       0.046  -0.587   0.349  1.00  0.00    +0.000 OA
ATOM      6  C   UNL     1       1.408  -0.433   0.413  1.00  0.00    +0.000 A 
ATOM      7  C   UNL     1       2.122  -1.381   1.145  1.00  0.00    +0.000 A 
ATOM      8  C   UNL     1       3.507  -1.273   1.241  1.00  0.00    +0.000 A 
ATOM      9  C   UNL     1       4.192  -0.233   0.617  1.00  0.00    +0.000 A 
ATOM     10  C   UNL     1       3.474   0.711  -0.113  1.00  0.00    +0.000 A 
ATOM     11  C   UNL     1       2.082   0.612  -0.216  1.00  0.00    +0.000 A 
ENDROOT
BRANCH   4  12
ATOM     12  C   UNL     1      -2.146   0.082  -0.373  1.00  0.00    +0.000 A 
ATOM     13  C   UNL     1      -3.081   1.115  -0.199  1.00  0.00    +0.000 A 
ATOM     14  C   UNL     1      -4.453   0.845  -0.201  1.00  0.00    +0.000 A 
ATOM     15  C   UNL     1      -4.903  -0.463  -0.372  1.00  0.00    +0.000 A 
ATOM     16  I   UNL     1      -6.941  -0.864  -0.374  1.00  0.00    +0.000 I 
ATOM     17  C   UNL     1      -3.991  -1.502  -0.536  1.00  0.00    +0.000 A 
ATOM     18  C   UNL     1      -2.619  -1.230  -0.533  1.00  0.00    +0.000 A 
ENDBRANCH   4  12
BRANCH   8  19
ATOM     19  O   UNL     1       4.167  -2.221   1.966  1.00  0.00    +0.000 OA
ATOM     20  H   UNL     1       5.118  -2.022   1.951  1.00  0.00    +0.000 HD
ENDBRANCH   8  19
BRANCH  10  21
ATOM     21  O   UNL     1       4.196   1.712  -0.706  1.00  0.00    +0.000 OA
ATOM     22  H   UNL     1       3.569   2.301  -1.184  1.00  0.00    +0.000 HD
ENDBRANCH  10  21
TORSDOF 3
