REMARK  Name = 
REMARK  6 active torsions:
REMARK  status: ('A' for Active; 'I' for Inactive)
REMARK    1  A    between atoms: C_2  and  O_3
REMARK    2  A    between atoms: C_2  and  C_4
REMARK    3  A    between atoms: C_6  and  C_7
REMARK    4  A    between atoms: C_12  and  O_13
REMARK    5  A    between atoms: C_15  and  O_16
REMARK    6  A    between atoms: C_22  and  O_23
REMARK                            x       y       z     vdW  Elec       q    Type
REMARK                         _______ _______ _______ _____ _____    ______ ____
ROOT
ATOM      1  C   UNL     1      -0.046  -0.016  -0.354  1.00  0.00    +0.000 A 
ATOM      2  C   UNL     1      -0.431   0.799  -1.347  1.00  0.00    +0.000 A 
ATOM      3  C   UNL     1      -1.851   1.161  -1.461  1.00  0.00    +0.000 A 
ATOM      4  O   UNL     1      -2.254   1.906  -2.347  1.00  0.00    +0.000 OA
ATOM      5  C   UNL     1      -2.768   0.594  -0.465  1.00  0.00    +0.000 A 
ATOM      6  C   UNL     1      -4.137   0.878  -0.481  1.00  0.00    +0.000 A 
ATOM      7  C   UNL     1      -4.974   0.320   0.481  1.00  0.00    +0.000 A 
ATOM      8  C   UNL     1      -4.438  -0.518   1.455  1.00  0.00    +0.000 A 
ATOM      9  C   UNL     1      -3.076  -0.809   1.481  1.00  0.00    +0.000 A 
ATOM     10  C   UNL     1      -2.241  -0.247   0.513  1.00  0.00    +0.000 A 
ATOM     11  O   UNL     1      -0.907  -0.566   0.583  1.00  0.00    +0.000 OA
ENDROOT
BRANCH   1  14
ATOM     12  C   UNL     1       3.747   0.101  -0.115  1.00  0.00    +0.000 A 
ATOM     13  C   UNL     1       2.412   0.504  -0.286  1.00  0.00    +0.000 A 
ATOM     14  C   UNL     1       1.363  -0.425  -0.190  1.00  0.00    +0.000 A 
ATOM     15  C   UNL     1       1.673  -1.764   0.094  1.00  0.00    +0.000 A 
ATOM     16  C   UNL     1       2.998  -2.171   0.264  1.00  0.00    +0.000 A 
ATOM     17  C   UNL     1       4.030  -1.243   0.159  1.00  0.00    +0.000 A 
BRANCH  12  19
ATOM     18  O   UNL     1       6.035   0.787  -0.069  1.00  0.00    +0.000 OA
ATOM     19  C   UNL     1       4.858   1.072  -0.217  1.00  0.00    +0.000 C 
BRANCH  19  20
ATOM     20  O   UNL     1       4.460   2.324  -0.497  1.00  0.00    +0.000 OA
ATOM     21  H   UNL     1       5.289   2.847  -0.534  1.00  0.00    +0.000 HD
ENDBRANCH  19  20
ENDBRANCH  12  19
BRANCH  17  22
ATOM     22  O   UNL     1       5.297  -1.729   0.341  1.00  0.00    +0.000 OA
ATOM     23  H   UNL     1       5.939  -0.991   0.253  1.00  0.00    +0.000 HD
ENDBRANCH  17  22
ENDBRANCH   1  14
BRANCH   6  24
ATOM     24  O   UNL     1      -4.718   1.694  -1.413  1.00  0.00    +0.000 OA
ATOM     25  H   UNL     1      -4.017   2.013  -2.025  1.00  0.00    +0.000 HD
ENDBRANCH   6  24
BRANCH   8  26
ATOM     26  O   UNL     1      -5.292  -1.043   2.380  1.00  0.00    +0.000 OA
ATOM     27  H   UNL     1      -4.793  -1.601   2.999  1.00  0.00    +0.000 HD
ENDBRANCH   8  26
TORSDOF 6
