REMARK  Name = 
REMARK  6 active torsions:
REMARK  status: ('A' for Active; 'I' for Inactive)
REMARK    1  A    between atoms: C_1  and  O_2
REMARK    2  A    between atoms: O_2  and  C_3
REMARK    3  A    between atoms: C_6  and  C_7
REMARK    4  A    between atoms: C_11  and  C_12
REMARK    5  A    between atoms: C_16  and  C_17
REMARK    6  A    between atoms: C_21  and  C_22
REMARK                            x       y       z     vdW  Elec       q    Type
REMARK                         _______ _______ _______ _____ _____    ______ ____
ROOT
ATOM      1  C   UNL     1       1.322   1.701   1.903  1.00  0.00    +0.000 A 
ATOM      2  N   UNL     1       0.497   1.091   1.069  1.00  0.00    +0.000 NA
ATOM      3  C   UNL     1      -0.773   1.330   1.529  1.00  0.00    +0.000 A 
ATOM      4  C   UNL     1      -2.010   0.916   1.017  1.00  0.00    +0.000 A 
ATOM      5  C   UNL     1      -3.195   1.303   1.670  1.00  0.00    +0.000 A 
ATOM      6  C   UNL     1      -3.114   2.083   2.837  1.00  0.00    +0.000 A 
ATOM      7  C   UNL     1      -1.884   2.502   3.368  1.00  0.00    +0.000 A 
ATOM      8  C   UNL     1      -0.739   2.105   2.679  1.00  0.00    +0.000 A 
ATOM      9  N   UNL     1       0.597   2.319   2.899  1.00  0.00    +0.000 N 
ATOM     10  H   UNL     1       0.984   2.833   3.673  1.00  0.00    +0.000 HD
ENDROOT
BRANCH   1  15
ATOM     11  C   UNL     1       6.864   0.470   0.229  1.00  0.00    +0.000 A 
ATOM     12  N   UNL     1       5.623   0.105  -0.049  1.00  0.00    +0.000 NA
ATOM     13  C   UNL     1       4.806   0.847   0.767  1.00  0.00    +0.000 A 
ATOM     14  C   UNL     1       3.409   0.854   0.878  1.00  0.00    +0.000 A 
ATOM     15  C   UNL     1       2.788   1.713   1.806  1.00  0.00    +0.000 A 
ATOM     16  C   UNL     1       3.588   2.555   2.600  1.00  0.00    +0.000 A 
ATOM     17  C   UNL     1       4.989   2.562   2.503  1.00  0.00    +0.000 A 
ATOM     18  C   UNL     1       5.554   1.690   1.574  1.00  0.00    +0.000 A 
ATOM     19  N   UNL     1       6.852   1.434   1.214  1.00  0.00    +0.000 N 
ATOM     20  H   UNL     1       7.665   1.881   1.607  1.00  0.00    +0.000 HD
BRANCH  11  24
ATOM     21  C   UNL     1      10.349  -1.154  -1.690  1.00  0.00    +0.000 A 
ATOM     22  C   UNL     1       9.072  -1.591  -2.035  1.00  0.00    +0.000 A 
ATOM     23  C   UNL     1       7.949  -1.048  -1.397  1.00  0.00    +0.000 A 
ATOM     24  C   UNL     1       8.076  -0.062  -0.406  1.00  0.00    +0.000 A 
ATOM     25  C   UNL     1       9.365   0.369  -0.068  1.00  0.00    +0.000 A 
ATOM     26  C   UNL     1      10.487  -0.174  -0.706  1.00  0.00    +0.000 A 
BRANCH  21  28
ATOM     27  C   UNL     1      11.434  -2.589  -3.241  1.00  0.00    +0.000 C 
ATOM     28  O   UNL     1      11.525  -1.594  -2.230  1.00  0.00    +0.000 OA
ENDBRANCH  21  28
ENDBRANCH  11  24
ENDBRANCH   1  15
BRANCH   5  29
ATOM     29  C   UNL     1      -4.481   0.868   1.111  1.00  0.00    +0.000 A 
ATOM     30  N   UNL     1      -4.656  -0.116   0.246  1.00  0.00    +0.000 NA
ATOM     31  C   UNL     1      -6.002  -0.167  -0.015  1.00  0.00    +0.000 A 
ATOM     32  C   UNL     1      -6.722  -1.026  -0.859  1.00  0.00    +0.000 A 
ATOM     33  C   UNL     1      -8.120  -0.882  -0.972  1.00  0.00    +0.000 A 
ATOM     34  C   UNL     1      -8.759   0.129  -0.229  1.00  0.00    +0.000 A 
ATOM     35  C   UNL     1      -8.058   0.998   0.620  1.00  0.00    +0.000 A 
ATOM     36  C   UNL     1      -6.679   0.811   0.697  1.00  0.00    +0.000 A 
ATOM     37  N   UNL     1      -5.694   1.456   1.398  1.00  0.00    +0.000 N 
ATOM     38  H   UNL     1      -5.832   2.249   2.004  1.00  0.00    +0.000 HD
BRANCH  33  39
ATOM     39  C   UNL     1      -8.894  -1.771  -1.856  1.00  0.00    +0.000 A 
ATOM     40  C   UNL     1     -10.004  -2.485  -1.375  1.00  0.00    +0.000 A 
ATOM     41  C   UNL     1     -10.739  -3.327  -2.215  1.00  0.00    +0.000 A 
ATOM     42  C   UNL     1     -10.375  -3.470  -3.551  1.00  0.00    +0.000 A 
ATOM     43  C   UNL     1      -9.277  -2.773  -4.048  1.00  0.00    +0.000 A 
ATOM     44  C   UNL     1      -8.543  -1.931  -3.207  1.00  0.00    +0.000 A 
ENDBRANCH  33  39
ENDBRANCH   5  29
TORSDOF 5
