REMARK  Name = 
REMARK  6 active torsions:
REMARK  status: ('A' for Active; 'I' for Inactive)
REMARK    1  A    between atoms: C_1  and  O_2
REMARK    2  A    between atoms: O_2  and  C_3
REMARK    3  A    between atoms: C_5  and  C_6
REMARK    4  A    between atoms: C_11  and  O_12
REMARK    5  A    between atoms: C_14  and  O_15
REMARK    6  A    between atoms: C_21  and  O_22
REMARK                            x       y       z     vdW  Elec       q    Type
REMARK                         _______ _______ _______ _____ _____    ______ ____
ROOT
ATOM      1  C   UNL     1       0.004  -0.890  -0.074  1.00  0.00    +0.000 A 
ATOM      2  C   UNL     1      -0.674  -1.908  -0.623  1.00  0.00    +0.000 A 
ATOM      3  C   UNL     1      -2.136  -1.949  -0.480  1.00  0.00    +0.000 A 
ATOM      4  O   UNL     1      -2.805  -2.858  -0.957  1.00  0.00    +0.000 OA
ATOM      5  C   UNL     1      -2.767  -0.850   0.261  1.00  0.00    +0.000 A 
ATOM      6  C   UNL     1      -4.151  -0.794   0.455  1.00  0.00    +0.000 A 
ATOM      7  C   UNL     1      -4.718   0.264   1.162  1.00  0.00    +0.000 A 
ATOM      8  C   UNL     1      -3.889   1.261   1.671  1.00  0.00    +0.000 A 
ATOM      9  C   UNL     1      -2.510   1.215   1.484  1.00  0.00    +0.000 A 
ATOM     10  C   UNL     1      -1.949   0.153   0.775  1.00  0.00    +0.000 A 
ATOM     11  O   UNL     1      -0.585   0.158   0.617  1.00  0.00    +0.000 OA
ENDROOT
BRANCH   1  14
ATOM     12  C   UNL     1       3.449   0.587  -0.584  1.00  0.00    +0.000 A 
ATOM     13  C   UNL     1       2.063   0.462  -0.479  1.00  0.00    +0.000 A 
ATOM     14  C   UNL     1       1.473  -0.784  -0.191  1.00  0.00    +0.000 A 
ATOM     15  C   UNL     1       2.302  -1.901   0.006  1.00  0.00    +0.000 A 
ATOM     16  C   UNL     1       3.688  -1.784  -0.099  1.00  0.00    +0.000 A 
ATOM     17  C   UNL     1       4.244  -0.547  -0.393  1.00  0.00    +0.000 A 
BRANCH  12  19
ATOM     18  C   UNL     1       3.369   2.921  -1.039  1.00  0.00    +0.000 C 
ATOM     19  O   UNL     1       4.141   1.738  -0.864  1.00  0.00    +0.000 OA
ENDBRANCH  12  19
BRANCH  17  20
ATOM     20  O   UNL     1       5.606  -0.459  -0.490  1.00  0.00    +0.000 OA
ATOM     21  H   UNL     1       5.785   0.480  -0.695  1.00  0.00    +0.000 HD
ENDBRANCH  17  20
ENDBRANCH   1  14
BRANCH   6  22
ATOM     22  O   UNL     1      -5.011  -1.745  -0.024  1.00  0.00    +0.000 OA
ATOM     23  H   UNL     1      -4.481  -2.427  -0.499  1.00  0.00    +0.000 HD
ENDBRANCH   6  22
BRANCH   8  24
ATOM     24  O   UNL     1      -4.397   2.317   2.369  1.00  0.00    +0.000 OA
ATOM     25  H   UNL     1      -5.362   2.216   2.432  1.00  0.00    +0.000 HD
ENDBRANCH   8  24
TORSDOF 5
