REMARK  Name = 
REMARK  2 active torsions:
REMARK  status: ('A' for Active; 'I' for Inactive)
REMARK    1  A    between atoms: O_2  and  C_3
REMARK    2  A    between atoms: C_8  and  C_9
REMARK                            x       y       z     vdW  Elec       q    Type
REMARK                         _______ _______ _______ _____ _____    ______ ____
ROOT
ATOM      1 BR   UNL     1       0.759   0.000   0.000  1.00  0.00    +0.000 Br
ATOM      2  H   UNL     1      -0.759   0.000   0.000  1.00  0.00    +0.000 HD
ENDROOT
TORSDOF 0
REMARK  Name = 
REMARK  2 active torsions:
REMARK  status: ('A' for Active; 'I' for Inactive)
REMARK    1  A    between atoms: O_2  and  C_3
REMARK    2  A    between atoms: C_8  and  C_9
REMARK                            x       y       z     vdW  Elec       q    Type
REMARK                         _______ _______ _______ _____ _____    ______ ____
ROOT
ATOM      1  C   UNL     1       4.083  -0.363   0.094  1.00  0.00    +0.000 A 
ATOM      2  C   UNL     1       3.876   0.688   0.987  1.00  0.00    +0.000 A 
ATOM      3  C   UNL     1       2.630   1.158   1.285  1.00  0.00    +0.000 A 
ATOM      4  C   UNL     1       1.531   0.561   0.672  1.00  0.00    +0.000 A 
ATOM      5  N   UNL     1       0.199   0.797   0.760  1.00  0.00    +0.000 N 
ATOM      6  C   UNL     1      -0.466  -0.054  -0.035  1.00  0.00    +0.000 A 
ATOM      7  N   UNL     1       0.459  -0.830  -0.626  1.00  0.00    +0.000 NA
ATOM      8  C   UNL     1       1.693  -0.480  -0.215  1.00  0.00    +0.000 A 
ATOM      9  C   UNL     1       2.976  -0.928  -0.492  1.00  0.00    +0.000 A 
ATOM     10  H   UNL     1      -0.242   1.525   1.353  1.00  0.00    +0.000 HD
ENDROOT
BRANCH   6  11
ATOM     11  C   UNL     1      -1.914  -0.118  -0.217  1.00  0.00    +0.000 A 
ATOM     12  C   UNL     1      -2.742   0.733   0.448  1.00  0.00    +0.000 A 
ATOM     13  C   UNL     1      -4.113   0.644   0.251  1.00  0.00    +0.000 A 
ATOM     14  C   UNL     1      -4.665  -0.292  -0.607  1.00  0.00    +0.000 A 
ATOM     15  C   UNL     1      -3.793  -1.150  -1.274  1.00  0.00    +0.000 A 
ATOM     16  C   UNL     1      -2.435  -1.072  -1.088  1.00  0.00    +0.000 A 
ENDBRANCH   6  11
BRANCH   1  17
ATOM     17  O   UNL     1       5.376  -0.826  -0.194  1.00  0.00    +0.000 OA
ATOM     18  H   UNL     1       6.047  -0.106  -0.474  1.00  0.00    +0.000 HD
ENDBRANCH   1  17
TORSDOF 2
