REMARK  Name = 
REMARK  3 active torsions:
REMARK  status: ('A' for Active; 'I' for Inactive)
REMARK    1  A    between atoms: C_2  and  C_4
REMARK    2  A    between atoms: C_9  and  C_10
REMARK    3  A    between atoms: C_15  and  C_16
REMARK                            x       y       z     vdW  Elec       q    Type
REMARK                         _______ _______ _______ _____ _____    ______ ____
ROOT
ATOM      1  C   UNL     1       0.400   0.283   0.631  1.00  0.00    +0.000 A 
ATOM      2  C   UNL     1      -0.069   0.866   1.824  1.00  0.00    +0.000 A 
ATOM      3  C   UNL     1      -1.435   1.027   2.098  1.00  0.00    +0.000 A 
ATOM      4  C   UNL     1      -2.317   0.576   1.120  1.00  0.00    +0.000 A 
ATOM      5  N   UNL     1      -3.685   0.566   1.039  1.00  0.00    +0.000 N 
ATOM      6  C   UNL     1      -4.060  -0.004  -0.159  1.00  0.00    +0.000 A 
ATOM      7  N   UNL     1      -2.981  -0.355  -0.841  1.00  0.00    +0.000 NA
ATOM      8  C   UNL     1      -1.904  -0.005  -0.068  1.00  0.00    +0.000 A 
ATOM      9  C   UNL     1      -0.532  -0.159  -0.325  1.00  0.00    +0.000 A 
ATOM     10  H   UNL     1      -4.312   0.923   1.742  1.00  0.00    +0.000 HD
ENDROOT
BRANCH   1  16
ATOM     11  C   UNL     1       6.368  -0.000   0.386  1.00  0.00    +0.000 A 
ATOM     12  C   UNL     1       6.147  -0.514  -0.902  1.00  0.00    +0.000 A 
ATOM     13  C   UNL     1       4.850  -0.684  -1.405  1.00  0.00    +0.000 A 
ATOM     14  C   UNL     1       3.802  -0.311  -0.563  1.00  0.00    +0.000 A 
ATOM     15  N   UNL     1       2.439  -0.332  -0.718  1.00  0.00    +0.000 N 
ATOM     16  C   UNL     1       1.849   0.155   0.428  1.00  0.00    +0.000 A 
ATOM     17  N   UNL     1       2.784   0.489   1.302  1.00  0.00    +0.000 NA
ATOM     18  C   UNL     1       3.989   0.211   0.709  1.00  0.00    +0.000 A 
ATOM     19  C   UNL     1       5.290   0.380   1.200  1.00  0.00    +0.000 A 
ATOM     20  H   UNL     1       1.950  -0.647  -1.541  1.00  0.00    +0.000 HD
BRANCH  11  22
ATOM     21  N   UNL     1       8.725  -0.628   0.426  1.00  0.00    +0.000 N 
ATOM     22  C   UNL     1       7.741   0.181   0.926  1.00  0.00    +0.000 C 
ATOM     23  O   UNL     1       7.988   0.994   1.808  1.00  0.00    +0.000 OA
ATOM     24  H   UNL     1       9.612  -0.580   0.911  1.00  0.00    +0.000 HD
ATOM     25  H   UNL     1       8.508  -1.491  -0.051  1.00  0.00    +0.000 HD
ENDBRANCH  11  22
ENDBRANCH   1  16
BRANCH   6  26
ATOM     26  C   UNL     1      -5.450  -0.185  -0.599  1.00  0.00    +0.000 A 
ATOM     27  C   UNL     1      -6.551   0.172   0.195  1.00  0.00    +0.000 A 
ATOM     28  C   UNL     1      -7.858  -0.020  -0.268  1.00  0.00    +0.000 A 
ATOM     29  C   UNL     1      -8.082  -0.569  -1.528  1.00  0.00    +0.000 A 
ATOM     30  C   UNL     1      -7.002  -0.929  -2.328  1.00  0.00    +0.000 A 
ATOM     31  C   UNL     1      -5.697  -0.738  -1.865  1.00  0.00    +0.000 A 
ENDBRANCH   6  26
TORSDOF 3
