REMARK  Name = 
REMARK  2 active torsions:
REMARK  status: ('A' for Active; 'I' for Inactive)
REMARK    1  A    between atoms: C_6  and  C_7
REMARK    2  A    between atoms: C_12  and  C_13
REMARK                            x       y       z     vdW  Elec       q    Type
REMARK                         _______ _______ _______ _____ _____    ______ ____
ROOT
ATOM      1  C   UNL     1       2.055   0.219  -0.764  1.00  0.00    +0.000 A 
ATOM      2  C   UNL     1       1.637   0.396  -2.096  1.00  0.00    +0.000 A 
ATOM      3  C   UNL     1       0.284   0.409  -2.466  1.00  0.00    +0.000 A 
ATOM      4  C   UNL     1      -0.638   0.237  -1.437  1.00  0.00    +0.000 A 
ATOM      5  N   UNL     1      -2.008   0.195  -1.418  1.00  0.00    +0.000 N 
ATOM      6  C   UNL     1      -2.432  -0.001  -0.121  1.00  0.00    +0.000 A 
ATOM      7  N   UNL     1      -1.384  -0.085   0.683  1.00  0.00    +0.000 NA
ATOM      8  C   UNL     1      -0.275   0.060  -0.112  1.00  0.00    +0.000 A 
ATOM      9  C   UNL     1       1.084   0.049   0.239  1.00  0.00    +0.000 A 
ATOM     10  H   UNL     1      -2.604   0.292  -2.225  1.00  0.00    +0.000 HD
ENDROOT
BRANCH   1  16
ATOM     11  C   UNL     1       8.005   0.306  -0.171  1.00  0.00    +0.000 A 
ATOM     12  C   UNL     1       7.730   0.107   1.184  1.00  0.00    +0.000 A 
ATOM     13  C   UNL     1       6.415   0.002   1.653  1.00  0.00    +0.000 A 
ATOM     14  C   UNL     1       5.402   0.108   0.699  1.00  0.00    +0.000 A 
ATOM     15  N   UNL     1       4.035   0.056   0.790  1.00  0.00    +0.000 N 
ATOM     16  C   UNL     1       3.495   0.219  -0.468  1.00  0.00    +0.000 A 
ATOM     17  N   UNL     1       4.465   0.372  -1.354  1.00  0.00    +0.000 NA
ATOM     18  C   UNL     1       5.643   0.307  -0.653  1.00  0.00    +0.000 A 
ATOM     19  C   UNL     1       6.966   0.409  -1.106  1.00  0.00    +0.000 A 
ATOM     20  H   UNL     1       3.514  -0.079   1.641  1.00  0.00    +0.000 HD
ENDBRANCH   1  16
BRANCH   6  21
ATOM     21  C   UNL     1      -3.839  -0.100   0.290  1.00  0.00    +0.000 A 
ATOM     22  C   UNL     1      -4.136  -0.301   1.652  1.00  0.00    +0.000 A 
ATOM     23  C   UNL     1      -5.450  -0.406   2.130  1.00  0.00    +0.000 A 
ATOM     24  C   UNL     1      -6.463  -0.301   1.181  1.00  0.00    +0.000 A 
ATOM     25  N   UNL     1      -7.830  -0.354   1.274  1.00  0.00    +0.000 N 
ATOM     26  C   UNL     1      -8.344  -0.191   0.018  1.00  0.00    +0.000 A 
ATOM     27  N   UNL     1      -7.396  -0.036  -0.878  1.00  0.00    +0.000 NA
ATOM     28  C   UNL     1      -6.220  -0.103  -0.172  1.00  0.00    +0.000 A 
ATOM     29  C   UNL     1      -4.897   0.000  -0.631  1.00  0.00    +0.000 A 
ATOM     30  H   UNL     1      -8.364  -0.489   2.120  1.00  0.00    +0.000 HD
ENDBRANCH   6  21
TORSDOF 2
