REMARK  Name = 
REMARK  3 active torsions:
REMARK  status: ('A' for Active; 'I' for Inactive)
REMARK    1  A    between atoms: C_4  and  C_5
REMARK    2  A    between atoms: C_15  and  O_16
REMARK    3  A    between atoms: C_18  and  O_19
REMARK                            x       y       z     vdW  Elec       q    Type
REMARK                         _______ _______ _______ _____ _____    ______ ____
ROOT
ATOM      1  O   UNL     1       1.901   2.522  -1.432  1.00  0.00    +0.000 OA
ATOM      2  C   UNL     1       1.329   1.577  -0.900  1.00  0.00    +0.000 A 
ATOM      3  C   UNL     1      -0.132   1.425  -0.965  1.00  0.00    +0.000 A 
ATOM      4  C   UNL     1      -0.703   0.374  -0.358  1.00  0.00    +0.000 A 
ATOM      5  O   UNL     1      -0.001  -0.607   0.326  1.00  0.00    +0.000 OA
ATOM      6  C   UNL     1       1.364  -0.498   0.410  1.00  0.00    +0.000 A 
ATOM      7  C   UNL     1       2.039  -1.496   1.112  1.00  0.00    +0.000 A 
ATOM      8  C   UNL     1       3.426  -1.435   1.227  1.00  0.00    +0.000 A 
ATOM      9  C   UNL     1       4.150  -0.394   0.652  1.00  0.00    +0.000 A 
ATOM     10  C   UNL     1       3.470   0.600  -0.048  1.00  0.00    +0.000 A 
ATOM     11  C   UNL     1       2.077   0.549  -0.170  1.00  0.00    +0.000 A 
ENDROOT
BRANCH   4  12
ATOM     12  C   UNL     1      -2.163   0.157  -0.394  1.00  0.00    +0.000 A 
ATOM     13  C   UNL     1      -3.068   1.213  -0.189  1.00  0.00    +0.000 A 
ATOM     14  C   UNL     1      -4.446   0.984  -0.216  1.00  0.00    +0.000 A 
ATOM     15  C   UNL     1      -4.925  -0.300  -0.442  1.00  0.00    +0.000 A 
ATOM     16  F   UNL     1      -6.246  -0.518  -0.467  1.00  0.00    +0.000 F 
ATOM     17  C   UNL     1      -4.051  -1.362  -0.638  1.00  0.00    +0.000 A 
ATOM     18  C   UNL     1      -2.673  -1.134  -0.611  1.00  0.00    +0.000 A 
ENDBRANCH   4  12
BRANCH   8  19
ATOM     19  O   UNL     1       4.047  -2.431   1.921  1.00  0.00    +0.000 OA
ATOM     20  H   UNL     1       5.005  -2.261   1.925  1.00  0.00    +0.000 HD
ENDBRANCH   8  19
BRANCH  10  21
ATOM     21  O   UNL     1       4.229   1.600  -0.593  1.00  0.00    +0.000 OA
ATOM     22  H   UNL     1       3.627   2.227  -1.055  1.00  0.00    +0.000 HD
ENDBRANCH  10  21
TORSDOF 3
