REMARK  Name = 
REMARK  6 active torsions:
REMARK  status: ('A' for Active; 'I' for Inactive)
REMARK    1  A    between atoms: C_1  and  O_2
REMARK    2  A    between atoms: O_2  and  C_3
REMARK    3  A    between atoms: C_6  and  C_7
REMARK    4  A    between atoms: C_12  and  O_13
REMARK    5  A    between atoms: C_15  and  O_16
REMARK    6  A    between atoms: C_21  and  O_22
REMARK                            x       y       z     vdW  Elec       q    Type
REMARK                         _______ _______ _______ _____ _____    ______ ____
ROOT
ATOM      1  C   UNL     1       0.223   0.149  -0.574  1.00  0.00    +0.000 A 
ATOM      2  C   UNL     1       0.690   0.610  -1.744  1.00  0.00    +0.000 A 
ATOM      3  C   UNL     1       2.143   0.658  -1.961  1.00  0.00    +0.000 A 
ATOM      4  O   UNL     1       2.623   1.061  -3.015  1.00  0.00    +0.000 OA
ATOM      5  C   UNL     1       2.999   0.202  -0.861  1.00  0.00    +0.000 A 
ATOM      6  C   UNL     1       4.395   0.208  -0.964  1.00  0.00    +0.000 A 
ATOM      7  C   UNL     1       5.179  -0.232   0.100  1.00  0.00    +0.000 A 
ATOM      8  C   UNL     1       4.556  -0.676   1.263  1.00  0.00    +0.000 A 
ATOM      9  C   UNL     1       3.168  -0.687   1.377  1.00  0.00    +0.000 A 
ATOM     10  C   UNL     1       2.389  -0.245   0.308  1.00  0.00    +0.000 A 
ATOM     11  O   UNL     1       1.026  -0.276   0.473  1.00  0.00    +0.000 OA
ENDROOT
BRANCH   1  15
ATOM     12  C   UNL     1      -3.985  -0.041   0.315  1.00  0.00    +0.000 A 
ATOM     13  C   UNL     1      -3.078   0.452   1.254  1.00  0.00    +0.000 A 
ATOM     14  C   UNL     1      -1.710   0.510   0.954  1.00  0.00    +0.000 A 
ATOM     15  C   UNL     1      -1.223   0.084  -0.289  1.00  0.00    +0.000 A 
ATOM     16  C   UNL     1      -2.134  -0.421  -1.228  1.00  0.00    +0.000 A 
ATOM     17  C   UNL     1      -3.497  -0.477  -0.924  1.00  0.00    +0.000 A 
BRANCH  12  19
ATOM     18  C   UNL     1      -5.859   0.291   1.752  1.00  0.00    +0.000 C 
ATOM     19  O   UNL     1      -5.338  -0.140   0.504  1.00  0.00    +0.000 OA
ENDBRANCH  12  19
BRANCH  17  20
ATOM     20  O   UNL     1      -4.379  -0.971  -1.850  1.00  0.00    +0.000 OA
ATOM     21  H   UNL     1      -3.894  -1.260  -2.638  1.00  0.00    +0.000 HD
ENDBRANCH  17  20
ENDBRANCH   1  15
BRANCH   6  22
ATOM     22  O   UNL     1       5.057   0.635  -2.084  1.00  0.00    +0.000 OA
ATOM     23  H   UNL     1       4.388   0.915  -2.749  1.00  0.00    +0.000 HD
ENDBRANCH   6  22
BRANCH   8  24
ATOM     24  O   UNL     1       5.281  -1.115   2.331  1.00  0.00    +0.000 OA
ATOM     25  H   UNL     1       6.227  -1.057   2.114  1.00  0.00    +0.000 HD
ENDBRANCH   8  24
TORSDOF 5
