REMARK  Name = 
REMARK  3 active torsions:
REMARK  status: ('A' for Active; 'I' for Inactive)
REMARK    1  A    between atoms: C_4  and  C_5
REMARK    2  A    between atoms: C_10  and  C_11
REMARK    3  A    between atoms: C_16  and  C_17
REMARK                            x       y       z     vdW  Elec       q    Type
REMARK                         _______ _______ _______ _____ _____    ______ ____
ROOT
ATOM      1  C   UNL     1      -0.087   0.622   0.447  1.00  0.00    +0.000 A 
ATOM      2  C   UNL     1       0.171   1.719   1.291  1.00  0.00    +0.000 A 
ATOM      3  C   UNL     1       1.470   2.153   1.587  1.00  0.00    +0.000 A 
ATOM      4  C   UNL     1       2.509   1.437   0.998  1.00  0.00    +0.000 A 
ATOM      5  N   UNL     1       3.873   1.565   1.054  1.00  0.00    +0.000 N 
ATOM      6  C   UNL     1       4.447   0.584   0.274  1.00  0.00    +0.000 A 
ATOM      7  N   UNL     1       3.501  -0.160  -0.274  1.00  0.00    +0.000 NA
ATOM      8  C   UNL     1       2.305   0.352   0.161  1.00  0.00    +0.000 A 
ATOM      9  C   UNL     1       0.996  -0.069  -0.124  1.00  0.00    +0.000 A 
ATOM     10  H   UNL     1       4.367   2.265   1.583  1.00  0.00    +0.000 HD
ENDROOT
BRANCH   1  16
ATOM     11  C   UNL     1      -5.955  -0.456  -0.212  1.00  0.00    +0.000 A 
ATOM     12  C   UNL     1      -5.496  -1.516  -1.018  1.00  0.00    +0.000 A 
ATOM     13  C   UNL     1      -4.133  -1.760  -1.236  1.00  0.00    +0.000 A 
ATOM     14  C   UNL     1      -3.239  -0.893  -0.610  1.00  0.00    +0.000 A 
ATOM     15  N   UNL     1      -1.870  -0.826  -0.595  1.00  0.00    +0.000 N 
ATOM     16  C   UNL     1      -1.482   0.237   0.193  1.00  0.00    +0.000 A 
ATOM     17  N   UNL     1      -2.552   0.846   0.678  1.00  0.00    +0.000 NA
ATOM     18  C   UNL     1      -3.639   0.163   0.193  1.00  0.00    +0.000 A 
ATOM     19  C   UNL     1      -5.008   0.391   0.399  1.00  0.00    +0.000 A 
ATOM     20  H   UNL     1      -1.251  -1.455  -1.081  1.00  0.00    +0.000 HD
BRANCH  11  24
ATOM     21  C   UNL     1     -10.158   0.194   0.373  1.00  0.00    +0.000 A 
ATOM     22  C   UNL     1      -9.601  -1.054   0.641  1.00  0.00    +0.000 A 
ATOM     23  C   UNL     1      -8.233  -1.265   0.450  1.00  0.00    +0.000 A 
ATOM     24  C   UNL     1      -7.397  -0.234  -0.010  1.00  0.00    +0.000 A 
ATOM     25  C   UNL     1      -7.980   1.018  -0.273  1.00  0.00    +0.000 A 
ATOM     26  C   UNL     1      -9.348   1.230  -0.084  1.00  0.00    +0.000 A 
ENDBRANCH  11  24
ENDBRANCH   1  16
BRANCH   6  27
ATOM     27  C   UNL     1       5.892   0.401   0.086  1.00  0.00    +0.000 A 
ATOM     28  C   UNL     1       6.846   1.219   0.695  1.00  0.00    +0.000 A 
ATOM     29  C   UNL     1       8.210   0.994   0.477  1.00  0.00    +0.000 A 
ATOM     30  C   UNL     1       8.653  -0.035  -0.341  1.00  0.00    +0.000 A 
ATOM     31  N   UNL     1       9.976  -0.214  -0.522  1.00  0.00    +0.000 NA
ATOM     32  C   UNL     1      10.337  -1.235  -1.330  1.00  0.00    +0.000 A 
ATOM     33  C   UNL     1       9.409  -2.053  -1.940  1.00  0.00    +0.000 A 
ATOM     34  N   UNL     1       8.080  -1.887  -1.769  1.00  0.00    +0.000 NA
ATOM     35  C   UNL     1       7.698  -0.873  -0.966  1.00  0.00    +0.000 A 
ATOM     36  C   UNL     1       6.346  -0.639  -0.741  1.00  0.00    +0.000 A 
ENDBRANCH   6  27
TORSDOF 3
