REMARK  Name = 
REMARK  12 active torsions:
REMARK  status: ('A' for Active; 'I' for Inactive)
REMARK    1  A    between atoms: N_1  and  C_2
REMARK    2  A    between atoms: C_2  and  C_3
REMARK    3  A    between atoms: C_3  and  S_4
REMARK    4  A    between atoms: S_4  and  S_5
REMARK    5  A    between atoms: S_5  and  C_6
REMARK    6  A    between atoms: C_6  and  C_7
REMARK    7  A    between atoms: C_8  and  C_9
REMARK    8  A    between atoms: C_9  and  S_10
REMARK    9  A    between atoms: S_10  and  S_11
REMARK   10  A    between atoms: S_11  and  C_12
REMARK   11  A    between atoms: C_12  and  C_13
REMARK   12  A    between atoms: C_13  and  N_14
REMARK                            x       y       z     vdW  Elec       q    Type
REMARK                         _______ _______ _______ _____ _____    ______ ____
ROOT
ATOM      1  C   UNL     1      -0.807  -2.745   0.441  1.00  0.00    +0.000 C 
ATOM      2  C   UNL     1       0.435  -2.232   0.377  1.00  0.00    +0.000 C 
ENDROOT
BRANCH   1   3
ATOM      3  C   UNL     1      -2.031  -2.268  -0.282  1.00  0.00    +0.000 C 
BRANCH   3   4
ATOM      4  S   UNL     1      -3.253  -1.603   0.893  1.00  0.00    +0.000 S 
BRANCH   4   5
ATOM      5  S   UNL     1      -2.415   0.181   1.494  1.00  0.00    +0.000 S 
BRANCH   5   6
ATOM      6  C   UNL     1      -2.906   1.344   0.169  1.00  0.00    +0.000 C 
BRANCH   6   7
ATOM      7  C   UNL     1      -4.415   1.608   0.084  1.00  0.00    +0.000 C 
BRANCH   7   8
ATOM      8  N   UNL     1      -5.006   2.111   1.327  1.00  0.00    +0.000 NA
ATOM      9  H   UNL     1      -4.866   1.406   2.055  1.00  0.00    +0.000 HD
ATOM     10  H   UNL     1      -4.492   2.931   1.646  1.00  0.00    +0.000 HD
ENDBRANCH   7   8
ENDBRANCH   6   7
ENDBRANCH   5   6
ENDBRANCH   4   5
ENDBRANCH   3   4
ENDBRANCH   1   3
BRANCH   2  11
ATOM     11  C   UNL     1       0.880  -1.012  -0.374  1.00  0.00    +0.000 C 
BRANCH  11  12
ATOM     12  S   UNL     1       1.850  -1.531  -1.823  1.00  0.00    +0.000 S 
BRANCH  12  13
ATOM     13  S   UNL     1       2.386   0.269  -2.665  1.00  0.00    +0.000 S 
BRANCH  13  14
ATOM     14  C   UNL     1       4.068   0.582  -2.013  1.00  0.00    +0.000 C 
BRANCH  14  15
ATOM     15  C   UNL     1       4.115   0.802  -0.500  1.00  0.00    +0.000 C 
BRANCH  15  16
ATOM     16  N   UNL     1       5.458   1.190  -0.061  1.00  0.00    +0.000 NA
ATOM     17  H   UNL     1       6.115   0.433  -0.249  1.00  0.00    +0.000 HD
ATOM     18  H   UNL     1       5.458   1.317   0.951  1.00  0.00    +0.000 HD
ENDBRANCH  15  16
ENDBRANCH  14  15
ENDBRANCH  13  14
ENDBRANCH  12  13
ENDBRANCH  11  12
ENDBRANCH   2  11
TORSDOF 12
