REMARK  Name = 
REMARK  6 active torsions:
REMARK  status: ('A' for Active; 'I' for Inactive)
REMARK    1  A    between atoms: C_4  and  C_5
REMARK    2  A    between atoms: C_7  and  O_8
REMARK    3  A    between atoms: C_9  and  O_10
REMARK    4  A    between atoms: C_11  and  O_12
REMARK    5  A    between atoms: C_17  and  O_18
REMARK    6  A    between atoms: C_20  and  O_21
REMARK                            x       y       z     vdW  Elec       q    Type
REMARK                         _______ _______ _______ _____ _____    ______ ____
ROOT
ATOM      1  O   UNL     1      -1.962  -2.395  -2.284  1.00  0.00    +0.000 OA
ATOM      2  C   UNL     1      -1.545  -1.540  -1.511  1.00  0.00    +0.000 A 
ATOM      3  C   UNL     1      -0.106  -1.311  -1.317  1.00  0.00    +0.000 A 
ATOM      4  C   UNL     1       0.291  -0.367  -0.451  1.00  0.00    +0.000 A 
ATOM      5  O   UNL     1      -0.573   0.437   0.277  1.00  0.00    +0.000 OA
ATOM      6  C   UNL     1      -1.925   0.252   0.124  1.00  0.00    +0.000 A 
ATOM      7  C   UNL     1      -2.767   1.070   0.877  1.00  0.00    +0.000 A 
ATOM      8  C   UNL     1      -4.147   0.925   0.759  1.00  0.00    +0.000 A 
ATOM      9  C   UNL     1      -4.700  -0.022  -0.098  1.00  0.00    +0.000 A 
ATOM     10  C   UNL     1      -3.854  -0.836  -0.847  1.00  0.00    +0.000 A 
ATOM     11  C   UNL     1      -2.466  -0.700  -0.737  1.00  0.00    +0.000 A 
ENDROOT
BRANCH   4  12
ATOM     12  C   UNL     1       1.720  -0.081  -0.217  1.00  0.00    +0.000 A 
ATOM     13  C   UNL     1       2.653  -1.119  -0.033  1.00  0.00    +0.000 A 
ATOM     14  C   UNL     1       3.999  -0.827   0.195  1.00  0.00    +0.000 A 
ATOM     15  C   UNL     1       4.423   0.496   0.246  1.00  0.00    +0.000 A 
ATOM     16  C   UNL     1       3.505   1.530   0.076  1.00  0.00    +0.000 A 
ATOM     17  C   UNL     1       2.160   1.253  -0.152  1.00  0.00    +0.000 A 
BRANCH  14  18
ATOM     18  O   UNL     1       4.908  -1.831   0.373  1.00  0.00    +0.000 OA
ATOM     19  H   UNL     1       4.458  -2.689   0.340  1.00  0.00    +0.000 HD
ENDBRANCH  14  18
BRANCH  15  20
ATOM     20  O   UNL     1       5.737   0.803   0.467  1.00  0.00    +0.000 OA
ATOM     21  H   UNL     1       5.771   1.779   0.461  1.00  0.00    +0.000 HD
ENDBRANCH  15  20
BRANCH  16  22
ATOM     22  O   UNL     1       3.974   2.814   0.141  1.00  0.00    +0.000 OA
ATOM     23  H   UNL     1       3.225   3.423   0.022  1.00  0.00    +0.000 HD
ENDBRANCH  16  22
ENDBRANCH   4  12
BRANCH   8  24
ATOM     24  O   UNL     1      -4.934   1.745   1.512  1.00  0.00    +0.000 OA
ATOM     25  H   UNL     1      -5.867   1.532   1.339  1.00  0.00    +0.000 HD
ENDBRANCH   8  24
BRANCH  10  26
ATOM     26  O   UNL     1      -4.450  -1.750  -1.673  1.00  0.00    +0.000 OA
ATOM     27  H   UNL     1      -3.743  -2.253  -2.138  1.00  0.00    +0.000 HD
ENDBRANCH  10  26
TORSDOF 6
