REMARK  Name = 
REMARK  2 active torsions:
REMARK  status: ('A' for Active; 'I' for Inactive)
REMARK    1  A    between atoms: N_1  and  C_2
REMARK    2  A    between atoms: C_12  and  N_13
REMARK                            x       y       z     vdW  Elec       q    Type
REMARK                         _______ _______ _______ _____ _____    ______ ____
ROOT
ATOM      1  C   UNL     1       0.585   1.158   0.297  1.00  0.00    +0.000 A 
ATOM      2  C   UNL     1       1.678   0.294   0.027  1.00  0.00    +0.000 A 
ATOM      3  C   UNL     1       3.039   0.697   0.018  1.00  0.00    +0.000 A 
ATOM      4  C   UNL     1       4.063  -0.213  -0.241  1.00  0.00    +0.000 A 
ATOM      5  C   UNL     1       3.749  -1.539  -0.497  1.00  0.00    +0.000 A 
ATOM      6  C   UNL     1       2.413  -1.942  -0.499  1.00  0.00    +0.000 A 
ATOM      7  C   UNL     1       1.375  -1.054  -0.249  1.00  0.00    +0.000 A 
ATOM      8  N   UNL     1       0.122  -1.529  -0.300  1.00  0.00    +0.000 NA
ATOM      9  C   UNL     1      -0.908  -0.700  -0.101  1.00  0.00    +0.000 A 
ATOM     10  C   UNL     1      -2.189  -1.223  -0.195  1.00  0.00    +0.000 A 
ATOM     11  C   UNL     1      -3.314  -0.411  -0.008  1.00  0.00    +0.000 A 
ATOM     12  C   UNL     1      -3.169   0.945   0.280  1.00  0.00    +0.000 A 
ATOM     13  C   UNL     1      -1.885   1.477   0.378  1.00  0.00    +0.000 A 
ATOM     14  C   UNL     1      -0.740   0.668   0.189  1.00  0.00    +0.000 A 
ENDROOT
BRANCH   1  15
ATOM     15  N   UNL     1       0.779   2.561   0.463  1.00  0.00    +0.000 N 
ATOM     16  H   UNL     1       0.727   3.025  -0.443  1.00  0.00    +0.000 HD
ATOM     17  H   UNL     1       1.665   2.781   0.906  1.00  0.00    +0.000 HD
ENDBRANCH   1  15
BRANCH  11  18
ATOM     18  N   UNL     1      -4.656  -0.994  -0.116  1.00  0.00    +0.000 N 
ATOM     19  O   UNL     1      -5.625  -0.238   0.043  1.00  0.00    +0.000 OA
ATOM     20  O   UNL     1      -4.743  -2.205  -0.361  1.00  0.00    +0.000 OA
ENDBRANCH  11  18
TORSDOF 2
