REMARK  Name = 
REMARK  12 active torsions:
REMARK  status: ('A' for Active; 'I' for Inactive)
REMARK    1  A    between atoms: N_2  and  C_3
REMARK    2  A    between atoms: C_3  and  C_4
REMARK    3  A    between atoms: C_4  and  S_5
REMARK    4  A    between atoms: S_5  and  S_6
REMARK    5  A    between atoms: S_6  and  C_7
REMARK    6  A    between atoms: C_7  and  C_8
REMARK    7  A    between atoms: C_9  and  C_10
REMARK    8  A    between atoms: C_10  and  S_11
REMARK    9  A    between atoms: S_11  and  S_12
REMARK   10  A    between atoms: S_12  and  C_13
REMARK   11  A    between atoms: C_13  and  C_14
REMARK   12  A    between atoms: C_14  and  N_15
REMARK                            x       y       z     vdW  Elec       q    Type
REMARK                         _______ _______ _______ _____ _____    ______ ____
ROOT
ATOM      1 CL   UNL     1       0.683   0.000   0.000  1.00  0.00    +0.000 Cl
ATOM      2  H   UNL     1      -0.683   0.000   0.000  1.00  0.00    +0.000 HD
ENDROOT
TORSDOF 0
REMARK  Name = 
REMARK  12 active torsions:
REMARK  status: ('A' for Active; 'I' for Inactive)
REMARK    1  A    between atoms: N_2  and  C_3
REMARK    2  A    between atoms: C_3  and  C_4
REMARK    3  A    between atoms: C_4  and  S_5
REMARK    4  A    between atoms: S_5  and  S_6
REMARK    5  A    between atoms: S_6  and  C_7
REMARK    6  A    between atoms: C_7  and  C_8
REMARK    7  A    between atoms: C_9  and  C_10
REMARK    8  A    between atoms: C_10  and  S_11
REMARK    9  A    between atoms: S_11  and  S_12
REMARK   10  A    between atoms: S_12  and  C_13
REMARK   11  A    between atoms: C_13  and  C_14
REMARK   12  A    between atoms: C_14  and  N_15
REMARK                            x       y       z     vdW  Elec       q    Type
REMARK                         _______ _______ _______ _____ _____    ______ ____
ROOT
ATOM      1  C   UNL     1      -0.565  -1.706   1.740  1.00  0.00    +0.000 C 
ATOM      2  C   UNL     1       0.320  -0.828   2.115  1.00  0.00    +0.000 C 
ENDROOT
BRANCH   1   3
ATOM      3  C   UNL     1      -1.080  -2.026   0.418  1.00  0.00    +0.000 C 
BRANCH   3   4
ATOM      4  S   UNL     1      -2.898  -1.724   0.498  1.00  0.00    +0.000 S 
BRANCH   4   5
ATOM      5  S   UNL     1      -3.220   0.378   0.765  1.00  0.00    +0.000 S 
BRANCH   5   6
ATOM      6  C   UNL     1      -3.339   1.094  -0.904  1.00  0.00    +0.000 C 
BRANCH   6   7
ATOM      7  C   UNL     1      -4.607   0.533  -1.541  1.00  0.00    +0.000 C 
BRANCH   7   8
ATOM      8  N   UNL     1      -5.752   0.915  -0.730  1.00  0.00    +0.000 NA
ATOM      9  H   UNL     1      -6.304   0.113  -0.394  1.00  0.00    +0.000 HD
ATOM     10  H   UNL     1      -5.487   1.612  -0.011  1.00  0.00    +0.000 HD
ENDBRANCH   7   8
ENDBRANCH   6   7
ENDBRANCH   5   6
ENDBRANCH   4   5
ENDBRANCH   3   4
ENDBRANCH   1   3
BRANCH   2  11
ATOM     11  C   UNL     1       1.104   0.136   1.359  1.00  0.00    +0.000 C 
BRANCH  11  12
ATOM     12  S   UNL     1       0.904   0.202  -0.408  1.00  0.00    +0.000 S 
BRANCH  12  13
ATOM     13  S   UNL     1       2.158   1.717  -1.201  1.00  0.00    +0.000 S 
BRANCH  13  14
ATOM     14  C   UNL     1       3.749   0.995  -1.621  1.00  0.00    +0.000 C 
BRANCH  14  15
ATOM     15  C   UNL     1       4.539   0.514  -0.448  1.00  0.00    +0.000 C 
BRANCH  15  16
ATOM     16  N   UNL     1       5.795  -0.025  -1.000  1.00  0.00    +0.000 NA
ATOM     17  H   UNL     1       5.600  -0.723  -1.725  1.00  0.00    +0.000 HD
ATOM     18  H   UNL     1       6.349  -0.431  -0.236  1.00  0.00    +0.000 HD
ENDBRANCH  15  16
ENDBRANCH  14  15
ENDBRANCH  13  14
ENDBRANCH  12  13
ENDBRANCH  11  12
ENDBRANCH   2  11
TORSDOF 12
