REMARK  Name = 
REMARK  2 active torsions:
REMARK  status: ('A' for Active; 'I' for Inactive)
REMARK    1  A    between atoms: N_1  and  C_2
REMARK    2  A    between atoms: C_14  and  N_15
REMARK                            x       y       z     vdW  Elec       q    Type
REMARK                         _______ _______ _______ _____ _____    ______ ____
ROOT
ATOM      1  C   UNL     1      -2.469  -0.242  -0.016  1.00  0.00    +0.000 A 
ATOM      2  C   UNL     1      -3.393   0.798  -0.179  1.00  0.00    +0.000 A 
ATOM      3  C   UNL     1      -2.963   2.110  -0.282  1.00  0.00    +0.000 A 
ATOM      4  C   UNL     1      -1.599   2.379  -0.246  1.00  0.00    +0.000 A 
ATOM      5  C   UNL     1      -0.650   1.373  -0.152  1.00  0.00    +0.000 A 
ATOM      6  N   UNL     1       0.627   1.776  -0.129  1.00  0.00    +0.000 NA
ATOM      7  C   UNL     1       1.610   0.873  -0.040  1.00  0.00    +0.000 A 
ATOM      8  C   UNL     1       2.922   1.327   0.026  1.00  0.00    +0.000 A 
ATOM      9  C   UNL     1       4.004   0.449   0.116  1.00  0.00    +0.000 A 
ATOM     10  C   UNL     1       3.776  -0.918   0.134  1.00  0.00    +0.000 A 
ATOM     11  C   UNL     1       2.468  -1.393   0.066  1.00  0.00    +0.000 A 
ATOM     12  C   UNL     1       1.366  -0.507  -0.016  1.00  0.00    +0.000 A 
ATOM     13  C   UNL     1       0.014  -0.934  -0.102  1.00  0.00    +0.000 A 
ATOM     14  C   UNL     1      -1.056   0.020  -0.087  1.00  0.00    +0.000 A 
ENDROOT
BRANCH   1  15
ATOM     15  N   UNL     1      -3.021  -1.542   0.044  1.00  0.00    +0.000 N 
ATOM     16  H   UNL     1      -3.206  -1.909  -0.887  1.00  0.00    +0.000 HD
ATOM     17  H   UNL     1      -2.461  -2.171   0.608  1.00  0.00    +0.000 HD
ENDBRANCH   1  15
BRANCH  13  18
ATOM     18  N   UNL     1      -0.239  -2.337  -0.027  1.00  0.00    +0.000 N 
ATOM     19  H   UNL     1      -1.072  -2.585  -0.550  1.00  0.00    +0.000 HD
ATOM     20  H   UNL     1      -0.289  -2.634   0.946  1.00  0.00    +0.000 HD
ENDBRANCH  13  18
TORSDOF 2
