REMARK  Name = 
REMARK  5 active torsions:
REMARK  status: ('A' for Active; 'I' for Inactive)
REMARK    1  A    between atoms: C_4  and  C_5
REMARK    2  A    between atoms: C_9  and  C_10
REMARK    3  A    between atoms: C_13  and  O_14
REMARK    4  A    between atoms: C_21  and  O_22
REMARK    5  A    between atoms: C_24  and  O_25
REMARK                            x       y       z     vdW  Elec       q    Type
REMARK                         _______ _______ _______ _____ _____    ______ ____
ROOT
ATOM      1  O   UNL     1       2.696   3.349  -0.349  1.00  0.00    +0.000 OA
ATOM      2  C   UNL     1       2.608   2.147  -0.126  1.00  0.00    +0.000 A 
ATOM      3  C   UNL     1       1.379   1.552   0.416  1.00  0.00    +0.000 A 
ATOM      4  C   UNL     1       1.338   0.230   0.635  1.00  0.00    +0.000 A 
ATOM      5  O   UNL     1       2.397  -0.634   0.399  1.00  0.00    +0.000 OA
ATOM      6  C   UNL     1       3.562  -0.117  -0.113  1.00  0.00    +0.000 A 
ATOM      7  C   UNL     1       4.601  -1.018  -0.351  1.00  0.00    +0.000 A 
ATOM      8  C   UNL     1       5.805  -0.545  -0.869  1.00  0.00    +0.000 A 
ATOM      9  C   UNL     1       5.983   0.807  -1.150  1.00  0.00    +0.000 A 
ATOM     10  C   UNL     1       4.943   1.701  -0.910  1.00  0.00    +0.000 A 
ATOM     11  C   UNL     1       3.730   1.238  -0.391  1.00  0.00    +0.000 A 
ENDROOT
BRANCH   4  12
ATOM     12  C   UNL     1       0.137  -0.426   1.185  1.00  0.00    +0.000 A 
ATOM     13  C   UNL     1       0.265  -1.379   2.204  1.00  0.00    +0.000 A 
ATOM     14  C   UNL     1      -0.860  -2.011   2.731  1.00  0.00    +0.000 A 
ATOM     15  C   UNL     1      -2.130  -1.702   2.241  1.00  0.00    +0.000 A 
ATOM     16  C   UNL     1      -2.296  -0.761   1.213  1.00  0.00    +0.000 A 
ATOM     17  C   UNL     1      -1.148  -0.134   0.695  1.00  0.00    +0.000 A 
BRANCH  16  18
ATOM     18  C   UNL     1      -3.634  -0.441   0.690  1.00  0.00    +0.000 A 
ATOM     19  C   UNL     1      -3.919  -0.545  -0.683  1.00  0.00    +0.000 A 
ATOM     20  C   UNL     1      -5.189  -0.241  -1.183  1.00  0.00    +0.000 A 
ATOM     21  C   UNL     1      -6.187   0.171  -0.308  1.00  0.00    +0.000 A 
ATOM     22  C   UNL     1      -5.935   0.284   1.052  1.00  0.00    +0.000 A 
ATOM     23  C   UNL     1      -4.665  -0.021   1.548  1.00  0.00    +0.000 A 
BRANCH  21  24
ATOM     24  O   UNL     1      -7.439   0.478  -0.750  1.00  0.00    +0.000 OA
ATOM     25  H   UNL     1      -7.467   0.357  -1.714  1.00  0.00    +0.000 HD
ENDBRANCH  21  24
ENDBRANCH  16  18
ENDBRANCH   4  12
BRANCH   8  26
ATOM     26  O   UNL     1       6.848  -1.387  -1.118  1.00  0.00    +0.000 OA
ATOM     27  H   UNL     1       6.591  -2.294  -0.885  1.00  0.00    +0.000 HD
ENDBRANCH   8  26
BRANCH  10  28
ATOM     28  O   UNL     1       5.174   3.017  -1.206  1.00  0.00    +0.000 OA
ATOM     29  H   UNL     1       4.362   3.529  -0.987  1.00  0.00    +0.000 HD
ENDBRANCH  10  28
TORSDOF 5
