REMARK  Name = 
REMARK  1 active torsions:
REMARK  status: ('A' for Active; 'I' for Inactive)
REMARK    1  A    between atoms: C_7  and  C_8
REMARK                            x       y       z     vdW  Elec       q    Type
REMARK                         _______ _______ _______ _____ _____    ______ ____
ROOT
ATOM      1 CL   UNL     1       5.750   0.155   1.462  1.00  0.00    +0.000 Cl
ATOM      2  C   UNL     1       4.240  -0.137   0.685  1.00  0.00    +0.000 A 
ATOM      3  C   UNL     1       4.207  -0.917  -0.474  1.00  0.00    +0.000 A 
ATOM      4  C   UNL     1       3.001  -1.178  -1.136  1.00  0.00    +0.000 A 
ATOM      5  C   UNL     1       1.852  -0.619  -0.575  1.00  0.00    +0.000 A 
ATOM      6  N   UNL     1       0.531  -0.660  -0.939  1.00  0.00    +0.000 N 
ATOM      7  C   UNL     1      -0.209   0.069  -0.033  1.00  0.00    +0.000 A 
ATOM      8  N   UNL     1       0.593   0.571   0.892  1.00  0.00    +0.000 NA
ATOM      9  C   UNL     1       1.862   0.159   0.575  1.00  0.00    +0.000 A 
ATOM     10  C   UNL     1       3.075   0.413   1.228  1.00  0.00    +0.000 A 
ATOM     11  H   UNL     1       0.163  -1.146  -1.741  1.00  0.00    +0.000 HD
ENDROOT
BRANCH   7  12
ATOM     12  C   UNL     1      -1.665   0.252  -0.097  1.00  0.00    +0.000 A 
ATOM     13  C   UNL     1      -2.459  -0.310  -1.108  1.00  0.00    +0.000 A 
ATOM     14  C   UNL     1      -3.843  -0.107  -1.127  1.00  0.00    +0.000 A 
ATOM     15  C   UNL     1      -4.453   0.659  -0.136  1.00  0.00    +0.000 A 
ATOM     16  C   UNL     1      -3.681   1.224   0.875  1.00  0.00    +0.000 A 
ATOM     17  C   UNL     1      -2.299   1.021   0.892  1.00  0.00    +0.000 A 
ENDBRANCH   7  12
TORSDOF 1
