REMARK  Name = 
REMARK  12 active torsions:
REMARK  status: ('A' for Active; 'I' for Inactive)
REMARK    1  A    between atoms: N_2  and  C_3
REMARK    2  A    between atoms: C_3  and  C_4
REMARK    3  A    between atoms: C_4  and  S_5
REMARK    4  A    between atoms: S_5  and  S_6
REMARK    5  A    between atoms: S_6  and  C_7
REMARK    6  A    between atoms: C_7  and  C_8
REMARK    7  A    between atoms: C_13  and  C_14
REMARK    8  A    between atoms: C_14  and  S_15
REMARK    9  A    between atoms: S_15  and  S_16
REMARK   10  A    between atoms: S_16  and  C_17
REMARK   11  A    between atoms: C_17  and  C_18
REMARK   12  A    between atoms: C_18  and  N_19
REMARK                            x       y       z     vdW  Elec       q    Type
REMARK                         _______ _______ _______ _____ _____    ______ ____
ROOT
ATOM      1 CL   UNL     1       0.683   0.000   0.000  1.00  0.00    +0.000 Cl
ATOM      2  H   UNL     1      -0.683   0.000   0.000  1.00  0.00    +0.000 HD
ENDROOT
TORSDOF 0
REMARK  Name = 
REMARK  12 active torsions:
REMARK  status: ('A' for Active; 'I' for Inactive)
REMARK    1  A    between atoms: N_2  and  C_3
REMARK    2  A    between atoms: C_3  and  C_4
REMARK    3  A    between atoms: C_4  and  S_5
REMARK    4  A    between atoms: S_5  and  S_6
REMARK    5  A    between atoms: S_6  and  C_7
REMARK    6  A    between atoms: C_7  and  C_8
REMARK    7  A    between atoms: C_13  and  C_14
REMARK    8  A    between atoms: C_14  and  S_15
REMARK    9  A    between atoms: S_15  and  S_16
REMARK   10  A    between atoms: S_16  and  C_17
REMARK   11  A    between atoms: C_17  and  C_18
REMARK   12  A    between atoms: C_18  and  N_19
REMARK                            x       y       z     vdW  Elec       q    Type
REMARK                         _______ _______ _______ _____ _____    ______ ____
ROOT
ATOM      1  C   UNL     1       0.588  -1.205   0.435  1.00  0.00    +0.000 A 
ATOM      2  C   UNL     1       1.133  -2.481   0.286  1.00  0.00    +0.000 A 
ATOM      3  C   UNL     1       0.538  -3.414  -0.539  1.00  0.00    +0.000 A 
ATOM      4  C   UNL     1      -0.609  -3.054  -1.215  1.00  0.00    +0.000 A 
ATOM      5  C   UNL     1      -1.170  -1.781  -1.079  1.00  0.00    +0.000 A 
ATOM      6  C   UNL     1      -0.576  -0.849  -0.254  1.00  0.00    +0.000 A 
ENDROOT
BRANCH   1   7
ATOM      7  C   UNL     1       1.240  -0.215   1.322  1.00  0.00    +0.000 C 
BRANCH   7   8
ATOM      8  S   UNL     1       2.136   1.052   0.402  1.00  0.00    +0.000 S 
BRANCH   8   9
ATOM      9  S   UNL     1       3.786   0.375  -0.668  1.00  0.00    +0.000 S 
BRANCH   9  10
ATOM     10  C   UNL     1       5.345   0.393   0.219  1.00  0.00    +0.000 C 
BRANCH  10  11
ATOM     11  C   UNL     1       5.799   1.803   0.522  1.00  0.00    +0.000 C 
BRANCH  11  12
ATOM     12  N   UNL     1       4.770   2.419   1.341  1.00  0.00    +0.000 NA
ATOM     13  H   UNL     1       5.210   3.129   1.956  1.00  0.00    +0.000 HD
ATOM     14  H   UNL     1       3.982   2.787   0.759  1.00  0.00    +0.000 HD
ENDBRANCH  11  12
ENDBRANCH  10  11
ENDBRANCH   9  10
ENDBRANCH   8   9
ENDBRANCH   7   8
ENDBRANCH   1   7
BRANCH   6  15
ATOM     15  C   UNL     1      -1.169   0.522  -0.097  1.00  0.00    +0.000 C 
BRANCH  15  16
ATOM     16  S   UNL     1      -2.059   0.612   1.480  1.00  0.00    +0.000 S 
BRANCH  16  17
ATOM     17  S   UNL     1      -3.731  -0.710   1.289  1.00  0.00    +0.000 S 
BRANCH  17  18
ATOM     18  C   UNL     1      -5.165   0.173   0.631  1.00  0.00    +0.000 C 
BRANCH  18  19
ATOM     19  C   UNL     1      -4.947   0.639  -0.787  1.00  0.00    +0.000 C 
BRANCH  19  20
ATOM     20  N   UNL     1      -6.161   1.332  -1.199  1.00  0.00    +0.000 NA
ATOM     21  H   UNL     1      -6.090   2.360  -0.991  1.00  0.00    +0.000 HD
ATOM     22  H   UNL     1      -6.329   1.174  -2.237  1.00  0.00    +0.000 HD
ENDBRANCH  19  20
ENDBRANCH  18  19
ENDBRANCH  17  18
ENDBRANCH  16  17
ENDBRANCH  15  16
ENDBRANCH   6  15
TORSDOF 12
