REMARK  Name = 
REMARK  2 active torsions:
REMARK  status: ('A' for Active; 'I' for Inactive)
REMARK    1  A    between atoms: N_1  and  C_2
REMARK    2  A    between atoms: C_11  and  O_12
REMARK                            x       y       z     vdW  Elec       q    Type
REMARK                         _______ _______ _______ _____ _____    ______ ____
ROOT
ATOM      1  C   UNL     1      -0.068   1.260  -0.048  1.00  0.00    +0.000 A 
ATOM      2  C   UNL     1      -1.287   0.526   0.013  1.00  0.00    +0.000 A 
ATOM      3  C   UNL     1      -2.580   1.104  -0.086  1.00  0.00    +0.000 A 
ATOM      4  C   UNL     1      -3.736   0.330   0.014  1.00  0.00    +0.000 A 
ATOM      5  C   UNL     1      -3.625  -1.037   0.210  1.00  0.00    +0.000 A 
ATOM      6  C   UNL     1      -2.359  -1.619   0.294  1.00  0.00    +0.000 A 
ATOM      7  C   UNL     1      -1.195  -0.869   0.191  1.00  0.00    +0.000 A 
ATOM      8  N   UNL     1      -0.028  -1.523   0.258  1.00  0.00    +0.000 NA
ATOM      9  C   UNL     1       1.116  -0.834   0.100  1.00  0.00    +0.000 A 
ATOM     10  C   UNL     1       2.309  -1.554   0.110  1.00  0.00    +0.000 A 
ATOM     11  C   UNL     1       3.554  -0.963  -0.066  1.00  0.00    +0.000 A 
ATOM     12  C   UNL     1       3.619   0.407  -0.269  1.00  0.00    +0.000 A 
ATOM     13  C   UNL     1       2.442   1.160  -0.279  1.00  0.00    +0.000 A 
ATOM     14  C   UNL     1       1.169   0.558  -0.083  1.00  0.00    +0.000 A 
ENDROOT
BRANCH   1  15
ATOM     15  N   UNL     1      -0.093   2.666  -0.269  1.00  0.00    +0.000 N 
ATOM     16  H   UNL     1      -0.913   3.116   0.123  1.00  0.00    +0.000 HD
ATOM     17  H   UNL     1       0.747   3.135   0.053  1.00  0.00    +0.000 HD
ENDBRANCH   1  15
BRANCH  10  18
ATOM     18  O   UNL     1       2.267  -2.917   0.295  1.00  0.00    +0.000 OA
ATOM     19  H   UNL     1       1.309  -3.110   0.381  1.00  0.00    +0.000 HD
ENDBRANCH  10  18
TORSDOF 2
