REMARK  Name = 
REMARK  3 active torsions:
REMARK  status: ('A' for Active; 'I' for Inactive)
REMARK    1  A    between atoms: C_4  and  C_5
REMARK    2  A    between atoms: C_8  and  C_9
REMARK    3  A    between atoms: C_12  and  C_13
REMARK                            x       y       z     vdW  Elec       q    Type
REMARK                         _______ _______ _______ _____ _____    ______ ____
ROOT
ATOM      1  C   UNL     1      -0.066   0.002  -0.064  1.00  0.00    +0.000 A 
ATOM      2  C   UNL     1       0.700  -0.504  -1.124  1.00  0.00    +0.000 A 
ATOM      3  C   UNL     1       2.098  -0.498  -1.070  1.00  0.00    +0.000 A 
ATOM      4  C   UNL     1       2.780   0.009   0.044  1.00  0.00    +0.000 A 
ATOM      5  C   UNL     1       2.020   0.517   1.105  1.00  0.00    +0.000 A 
ATOM      6  C   UNL     1       0.619   0.513   1.049  1.00  0.00    +0.000 A 
ENDROOT
BRANCH   4   7
ATOM      7  C   UNL     1       4.249  -0.011   0.053  1.00  0.00    +0.000 A 
ATOM      8  N   UNL     1       5.021  -0.424  -0.939  1.00  0.00    +0.000 NA
ATOM      9  C   UNL     1       6.316  -0.274  -0.511  1.00  0.00    +0.000 A 
ATOM     10  C   UNL     1       7.519  -0.559  -1.170  1.00  0.00    +0.000 A 
ATOM     11  C   UNL     1       8.725  -0.312  -0.502  1.00  0.00    +0.000 A 
ATOM     12  C   UNL     1       8.731   0.208   0.795  1.00  0.00    +0.000 A 
ATOM     13  C   UNL     1       7.538   0.499   1.468  1.00  0.00    +0.000 A 
ATOM     14  C   UNL     1       6.352   0.242   0.776  1.00  0.00    +0.000 A 
ATOM     15  N   UNL     1       5.032   0.398   1.111  1.00  0.00    +0.000 N 
ATOM     16  H   UNL     1       4.694   0.751   1.991  1.00  0.00    +0.000 HD
ENDBRANCH   4   7
BRANCH   1  20
ATOM     17  C   UNL     1      -4.384  -0.015  -0.217  1.00  0.00    +0.000 A 
ATOM     18  C   UNL     1      -3.673   1.165   0.043  1.00  0.00    +0.000 A 
ATOM     19  C   UNL     1      -2.274   1.171   0.093  1.00  0.00    +0.000 A 
ATOM     20  C   UNL     1      -1.536  -0.003  -0.117  1.00  0.00    +0.000 A 
ATOM     21  C   UNL     1      -2.247  -1.183  -0.378  1.00  0.00    +0.000 A 
ATOM     22  C   UNL     1      -3.647  -1.189  -0.427  1.00  0.00    +0.000 A 
BRANCH  17  26
ATOM     23  C   UNL     1      -8.673  -0.033  -0.372  1.00  0.00    +0.000 A 
ATOM     24  C   UNL     1      -8.017   0.479   0.744  1.00  0.00    +0.000 A 
ATOM     25  C   UNL     1      -6.621   0.485   0.793  1.00  0.00    +0.000 A 
ATOM     26  C   UNL     1      -5.855  -0.021  -0.270  1.00  0.00    +0.000 A 
ATOM     27  C   UNL     1      -6.538  -0.534  -1.387  1.00  0.00    +0.000 A 
ATOM     28  C   UNL     1      -7.934  -0.540  -1.438  1.00  0.00    +0.000 A 
ENDBRANCH  17  26
ENDBRANCH   1  20
TORSDOF 3
