REMARK  Name = 
REMARK  3 active torsions:
REMARK  status: ('A' for Active; 'I' for Inactive)
REMARK    1  A    between atoms: C_4  and  C_5
REMARK    2  A    between atoms: C_16  and  O_17
REMARK    3  A    between atoms: C_19  and  O_20
REMARK                            x       y       z     vdW  Elec       q    Type
REMARK                         _______ _______ _______ _____ _____    ______ ____
ROOT
ATOM      1  O   UNL     1      -1.197  -1.446   2.889  1.00  0.00    +0.000 OA
ATOM      2  C   UNL     1      -0.906  -0.934   1.813  1.00  0.00    +0.000 A 
ATOM      3  C   UNL     1       0.488  -0.633   1.457  1.00  0.00    +0.000 A 
ATOM      4  C   UNL     1       0.749  -0.075   0.266  1.00  0.00    +0.000 A 
ATOM      5  O   UNL     1      -0.220   0.261  -0.667  1.00  0.00    +0.000 OA
ATOM      6  C   UNL     1      -1.534  -0.012  -0.375  1.00  0.00    +0.000 A 
ATOM      7  C   UNL     1      -2.480   0.326  -1.345  1.00  0.00    +0.000 A 
ATOM      8  C   UNL     1      -3.827   0.072  -1.097  1.00  0.00    +0.000 A 
ATOM      9  C   UNL     1      -4.240  -0.509   0.100  1.00  0.00    +0.000 A 
ATOM     10  C   UNL     1      -3.292  -0.844   1.062  1.00  0.00    +0.000 A 
ATOM     11  C   UNL     1      -1.937  -0.595   0.825  1.00  0.00    +0.000 A 
ENDROOT
BRANCH   4  12
ATOM     12  C   UNL     1       2.125   0.261  -0.148  1.00  0.00    +0.000 A 
ATOM     13  C   UNL     1       2.386   1.491  -0.779  1.00  0.00    +0.000 A 
ATOM     14  C   UNL     1       3.680   1.825  -1.191  1.00  0.00    +0.000 A 
ATOM     15  C   UNL     1       4.719   0.927  -0.980  1.00  0.00    +0.000 A 
ATOM     16  F   UNL     1       5.958   1.249  -1.376  1.00  0.00    +0.000 F 
ATOM     17  C   UNL     1       4.474  -0.294  -0.366  1.00  0.00    +0.000 A 
ATOM     18  F   UNL     1       5.475  -1.162  -0.170  1.00  0.00    +0.000 F 
ATOM     19  C   UNL     1       3.188  -0.634   0.048  1.00  0.00    +0.000 A 
ENDBRANCH   4  12
BRANCH   8  20
ATOM     20  O   UNL     1      -4.787   0.383  -2.014  1.00  0.00    +0.000 OA
ATOM     21  H   UNL     1      -4.369   0.769  -2.801  1.00  0.00    +0.000 HD
ENDBRANCH   8  20
BRANCH  10  22
ATOM     22  O   UNL     1      -3.754  -1.412   2.218  1.00  0.00    +0.000 OA
ATOM     23  H   UNL     1      -2.985  -1.595   2.803  1.00  0.00    +0.000 HD
ENDBRANCH  10  22
TORSDOF 3
