REMARK  Name = 
REMARK  1 active torsions:
REMARK  status: ('A' for Active; 'I' for Inactive)
REMARK    1  A    between atoms: N_1  and  C_2
REMARK                            x       y       z     vdW  Elec       q    Type
REMARK                         _______ _______ _______ _____ _____    ______ ____
ROOT
ATOM      1  C   UNL     1       0.032  -1.077  -0.298  1.00  0.00    +0.000 A 
ATOM      2  C   UNL     1      -1.226  -0.433  -0.188  1.00  0.00    +0.000 A 
ATOM      3  C   UNL     1      -2.462  -1.106  -0.332  1.00  0.00    +0.000 A 
ATOM      4  C   UNL     1      -3.673  -0.424  -0.230  1.00  0.00    +0.000 A 
ATOM      5  C   UNL     1      -3.666   0.942   0.013  1.00  0.00    +0.000 A 
ATOM      6  C   UNL     1      -2.449   1.612   0.152  1.00  0.00    +0.000 A 
ATOM      7  C   UNL     1      -1.230   0.952   0.057  1.00  0.00    +0.000 A 
ATOM      8  N   UNL     1      -0.106   1.665   0.212  1.00  0.00    +0.000 NA
ATOM      9  C   UNL     1       1.081   1.046   0.159  1.00  0.00    +0.000 A 
ATOM     10  C   UNL     1       2.219   1.816   0.362  1.00  0.00    +0.000 A 
ATOM     11  C   UNL     1       3.500   1.263   0.353  1.00  0.00    +0.000 A 
ATOM     12  C   UNL     1       3.656  -0.097   0.138  1.00  0.00    +0.000 A 
ATOM     13  C   UNL     1       2.529  -0.892  -0.072  1.00  0.00    +0.000 A 
ATOM     14  C   UNL     1       1.223  -0.337  -0.075  1.00  0.00    +0.000 A 
ENDROOT
BRANCH   1  15
ATOM     15  N   UNL     1       0.061  -2.498  -0.417  1.00  0.00    +0.000 N 
ATOM     16  H   UNL     1       0.918  -2.840  -0.837  1.00  0.00    +0.000 HD
ATOM     17  H   UNL     1      -0.069  -2.920   0.502  1.00  0.00    +0.000 HD
ENDBRANCH   1  15
TORSDOF 1
