REMARK  Name = 
REMARK  0 active torsions:
REMARK  status: ('A' for Active; 'I' for Inactive)
REMARK                            x       y       z     vdW  Elec       q    Type
REMARK                         _______ _______ _______ _____ _____    ______ ____
ROOT
ATOM      1  N   UNL     1      -1.556   2.893   0.517  1.00  0.00    +0.000 N 
ATOM      2  C   UNL     1      -0.751   1.756   0.332  1.00  0.00    +0.000 A 
ATOM      3  N   UNL     1       0.564   1.957   0.502  1.00  0.00    +0.000 NA
ATOM      4  C   UNL     1       1.406   0.932   0.347  1.00  0.00    +0.000 A 
ATOM      5  C   UNL     1       2.758   1.188   0.533  1.00  0.00    +0.000 A 
ATOM      6  C   UNL     1       3.727   0.194   0.397  1.00  0.00    +0.000 A 
ATOM      7  C   UNL     1       3.337  -1.093   0.065  1.00  0.00    +0.000 A 
ATOM      8  C   UNL     1       1.984  -1.372  -0.127  1.00  0.00    +0.000 A 
ATOM      9  C   UNL     1       0.985  -0.370   0.008  1.00  0.00    +0.000 A 
ATOM     10  C   UNL     1      -0.421  -0.585  -0.174  1.00  0.00    +0.000 A 
ATOM     11  C   UNL     1      -0.988  -1.840  -0.515  1.00  0.00    +0.000 A 
ATOM     12  C   UNL     1      -2.363  -2.018  -0.686  1.00  0.00    +0.000 A 
ATOM     13  C   UNL     1      -3.221  -0.945  -0.521  1.00  0.00    +0.000 A 
ATOM     14  C   UNL     1      -2.700   0.303  -0.186  1.00  0.00    +0.000 A 
ATOM     15  C   UNL     1      -1.307   0.506  -0.007  1.00  0.00    +0.000 A 
ATOM     16  H   UNL     1      -2.219   2.715   1.264  1.00  0.00    +0.000 HD
ATOM     17  H   UNL     1      -2.068   3.082  -0.339  1.00  0.00    +0.000 HD
ENDROOT
TORSDOF 0
