REMARK  Name = 
REMARK  2 active torsions:
REMARK  status: ('A' for Active; 'I' for Inactive)
REMARK    1  A    between atoms: C_3  and  C_4
REMARK    2  A    between atoms: C_14  and  C_15
REMARK                            x       y       z     vdW  Elec       q    Type
REMARK                         _______ _______ _______ _____ _____    ______ ____
ROOT
ATOM      1  C   UNL     1      -0.413   2.360  -2.513  1.00  0.00    +0.000 A 
ATOM      2  C   UNL     1       0.868   1.907  -2.193  1.00  0.00    +0.000 A 
ATOM      3  C   UNL     1       1.066   0.968  -1.173  1.00  0.00    +0.000 A 
ATOM      4  C   UNL     1      -0.059   0.495  -0.481  1.00  0.00    +0.000 A 
ATOM      5  C   UNL     1      -1.360   0.939  -0.787  1.00  0.00    +0.000 A 
ATOM      6  C   UNL     1      -1.521   1.879  -1.813  1.00  0.00    +0.000 A 
ENDROOT
BRANCH   3   7
ATOM      7  C   UNL     1       2.430   0.517  -0.869  1.00  0.00    +0.000 A 
ATOM      8  N   UNL     1       3.531   0.921  -1.481  1.00  0.00    +0.000 NA
ATOM      9  C   UNL     1       4.571   0.253  -0.886  1.00  0.00    +0.000 A 
ATOM     10  C   UNL     1       5.947   0.311  -1.153  1.00  0.00    +0.000 A 
ATOM     11  C   UNL     1       6.812  -0.484  -0.390  1.00  0.00    +0.000 A 
ATOM     12  C   UNL     1       6.317  -1.319   0.615  1.00  0.00    +0.000 A 
ATOM     13  C   UNL     1       4.946  -1.390   0.894  1.00  0.00    +0.000 A 
ATOM     14  C   UNL     1       4.109  -0.586   0.118  1.00  0.00    +0.000 A 
ATOM     15  N   UNL     1       2.751  -0.400   0.109  1.00  0.00    +0.000 N 
ATOM     16  H   UNL     1       2.097  -0.862   0.720  1.00  0.00    +0.000 HD
ENDBRANCH   3   7
BRANCH   5  17
ATOM     17  C   UNL     1      -2.488   0.398  -0.018  1.00  0.00    +0.000 A 
ATOM     18  N   UNL     1      -2.395  -0.489   0.960  1.00  0.00    +0.000 NA
ATOM     19  C   UNL     1      -3.675  -0.715   1.400  1.00  0.00    +0.000 A 
ATOM     20  C   UNL     1      -4.141  -1.563   2.415  1.00  0.00    +0.000 A 
ATOM     21  C   UNL     1      -5.518  -1.610   2.669  1.00  0.00    +0.000 A 
ATOM     22  C   UNL     1      -6.410  -0.831   1.928  1.00  0.00    +0.000 A 
ATOM     23  C   UNL     1      -5.961   0.021   0.911  1.00  0.00    +0.000 A 
ATOM     24  C   UNL     1      -4.585   0.047   0.681  1.00  0.00    +0.000 A 
ATOM     25  N   UNL     1      -3.808   0.742  -0.209  1.00  0.00    +0.000 N 
ATOM     26  H   UNL     1      -4.152   1.398  -0.892  1.00  0.00    +0.000 HD
ENDBRANCH   5  17
TORSDOF 2
