REMARK  Name = 
REMARK  1 active torsions:
REMARK  status: ('A' for Active; 'I' for Inactive)
REMARK    1  A    between atoms: N_1  and  C_2
REMARK                            x       y       z     vdW  Elec       q    Type
REMARK                         _______ _______ _______ _____ _____    ______ ____
ROOT
ATOM      1  C   UNL     1      -0.154  -1.091   0.088  1.00  0.00    +0.000 A 
ATOM      2  C   UNL     1      -1.290  -0.248   0.172  1.00  0.00    +0.000 A 
ATOM      3  C   UNL     1      -2.615  -0.734   0.288  1.00  0.00    +0.000 A 
ATOM      4  C   UNL     1      -3.698   0.138   0.382  1.00  0.00    +0.000 A 
ATOM      5  C   UNL     1      -3.475   1.506   0.365  1.00  0.00    +0.000 A 
ATOM      6  C   UNL     1      -2.169   1.991   0.255  1.00  0.00    +0.000 A 
ATOM      7  C   UNL     1      -1.074   1.141   0.157  1.00  0.00    +0.000 A 
ATOM      8  N   UNL     1       0.146   1.685   0.045  1.00  0.00    +0.000 NA
ATOM      9  C   UNL     1       1.214   0.889  -0.083  1.00  0.00    +0.000 A 
ATOM     10  C   UNL     1       2.454   1.497  -0.233  1.00  0.00    +0.000 A 
ATOM     11  C   UNL     1       3.626   0.757  -0.400  1.00  0.00    +0.000 A 
ATOM     12  C   UNL     1       3.555  -0.626  -0.421  1.00  0.00    +0.000 A 
ATOM     13 CL   UNL     1       4.985  -1.556  -0.635  1.00  0.00    +0.000 Cl
ATOM     14  C   UNL     1       2.326  -1.265  -0.269  1.00  0.00    +0.000 A 
ATOM     15  C   UNL     1       1.133  -0.519  -0.089  1.00  0.00    +0.000 A 
ENDROOT
BRANCH   1  16
ATOM     16  N   UNL     1      -0.357  -2.496  -0.026  1.00  0.00    +0.000 N 
ATOM     17  H   UNL     1       0.445  -3.047   0.262  1.00  0.00    +0.000 HD
ATOM     18  H   UNL     1      -0.623  -2.735  -0.980  1.00  0.00    +0.000 HD
ENDBRANCH   1  16
TORSDOF 1
