REMARK  Name = 
REMARK  3 active torsions:
REMARK  status: ('A' for Active; 'I' for Inactive)
REMARK    1  A    between atoms: C_1  and  C_2
REMARK    2  A    between atoms: C_5  and  C_6
REMARK    3  A    between atoms: C_11  and  C_12
REMARK                            x       y       z     vdW  Elec       q    Type
REMARK                         _______ _______ _______ _____ _____    ______ ____
ROOT
ATOM      1  C   UNL     1       2.680  -0.542   0.012  1.00  0.00    +0.000 A 
ATOM      2  N   UNL     1       2.168  -1.755   0.140  1.00  0.00    +0.000 NA
ATOM      3  C   UNL     1       0.806  -1.596   0.066  1.00  0.00    +0.000 A 
ATOM      4  C   UNL     1      -0.212  -2.556   0.141  1.00  0.00    +0.000 A 
ATOM      5  C   UNL     1      -1.545  -2.133   0.036  1.00  0.00    +0.000 A 
ATOM      6  C   UNL     1      -1.862  -0.777  -0.137  1.00  0.00    +0.000 A 
ATOM      7  C   UNL     1      -0.849   0.194  -0.218  1.00  0.00    +0.000 A 
ATOM      8  C   UNL     1       0.469  -0.260  -0.110  1.00  0.00    +0.000 A 
ATOM      9  N   UNL     1       1.675   0.386  -0.141  1.00  0.00    +0.000 N 
ATOM     10  H   UNL     1       1.845   1.375  -0.255  1.00  0.00    +0.000 HD
ENDROOT
BRANCH   6  11
ATOM     11  C   UNL     1      -3.275  -0.368  -0.254  1.00  0.00    +0.000 A 
ATOM     12  C   UNL     1      -3.993  -0.457  -1.512  1.00  0.00    +0.000 A 
ATOM     13  C   UNL     1      -5.274  -0.098  -1.659  1.00  0.00    +0.000 A 
ATOM     14  C   UNL     1      -6.022   0.420  -0.495  1.00  0.00    +0.000 A 
ATOM     15  N   UNL     1      -7.260   0.775  -0.611  1.00  0.00    +0.000 NA
ATOM     16  C   UNL     1      -7.898   1.248   0.505  1.00  0.00    +0.000 A 
ATOM     17  O   UNL     1      -9.072   1.607   0.487  1.00  0.00    +0.000 OA
ATOM     18  N   UNL     1      -7.191   1.322   1.689  1.00  0.00    +0.000 N 
ATOM     19  N   UNL     1      -5.888   0.964   1.875  1.00  0.00    +0.000 NA
ATOM     20  C   UNL     1      -5.285   0.516   0.818  1.00  0.00    +0.000 A 
ATOM     21  C   UNL     1      -3.872   0.089   0.860  1.00  0.00    +0.000 A 
ATOM     22  H   UNL     1      -7.696   1.676   2.494  1.00  0.00    +0.000 HD
ENDBRANCH   6  11
BRANCH   1  27
ATOM     23  C   UNL     1       8.096   1.231   0.038  1.00  0.00    +0.000 C 
ATOM     24  C   UNL     1       6.693   0.712   0.009  1.00  0.00    +0.000 A 
ATOM     25  C   UNL     1       6.420  -0.646   0.178  1.00  0.00    +0.000 A 
ATOM     26  C   UNL     1       5.099  -1.088   0.179  1.00  0.00    +0.000 A 
ATOM     27  C   UNL     1       4.086  -0.152   0.021  1.00  0.00    +0.000 A 
ATOM     28  N   UNL     1       4.316   1.179  -0.131  1.00  0.00    +0.000 NA
ATOM     29  C   UNL     1       5.610   1.574  -0.127  1.00  0.00    +0.000 A 
ENDBRANCH   1  27
TORSDOF 2
