REMARK  Name = 
REMARK  3 active torsions:
REMARK  status: ('A' for Active; 'I' for Inactive)
REMARK    1  A    between atoms: C_1  and  O_2
REMARK    2  A    between atoms: O_2  and  C_3
REMARK    3  A    between atoms: C_14  and  N_15
REMARK                            x       y       z     vdW  Elec       q    Type
REMARK                         _______ _______ _______ _____ _____    ______ ____
ROOT
ATOM      1  C   UNL     1      -2.809  -0.180   0.856  1.00  0.00    +0.000 A 
ATOM      2  C   UNL     1      -2.341  -0.482   2.128  1.00  0.00    +0.000 A 
ATOM      3  C   UNL     1      -0.971  -0.600   2.363  1.00  0.00    +0.000 A 
ATOM      4  C   UNL     1      -0.038  -0.426   1.353  1.00  0.00    +0.000 A 
ATOM      5  N   UNL     1       1.257  -0.532   1.680  1.00  0.00    +0.000 NA
ATOM      6  C   UNL     1       2.193  -0.335   0.742  1.00  0.00    +0.000 A 
ATOM      7  C   UNL     1       3.529  -0.417   1.115  1.00  0.00    +0.000 A 
ATOM      8  C   UNL     1       4.566  -0.215   0.202  1.00  0.00    +0.000 A 
ATOM      9  C   UNL     1       4.268   0.072  -1.121  1.00  0.00    +0.000 A 
ATOM     10  C   UNL     1       2.935   0.156  -1.519  1.00  0.00    +0.000 A 
ATOM     11  C   UNL     1       1.879  -0.043  -0.597  1.00  0.00    +0.000 A 
ATOM     12  C   UNL     1       0.509   0.016  -0.953  1.00  0.00    +0.000 A 
ATOM     13  C   UNL     1      -0.487  -0.132   0.050  1.00  0.00    +0.000 A 
ATOM     14  C   UNL     1      -1.887  -0.005  -0.176  1.00  0.00    +0.000 A 
ENDROOT
BRANCH  12  15
ATOM     15  N   UNL     1       0.169   0.436  -2.272  1.00  0.00    +0.000 N 
ATOM     16  H   UNL     1      -0.747   0.118  -2.570  1.00  0.00    +0.000 HD
ATOM     17  H   UNL     1       0.227   1.452  -2.336  1.00  0.00    +0.000 HD
ENDBRANCH  12  15
BRANCH   1  19
ATOM     18  C   UNL     1      -4.705   0.199  -0.533  1.00  0.00    +0.000 C 
ATOM     19  O   UNL     1      -4.168  -0.085   0.753  1.00  0.00    +0.000 OA
ENDBRANCH   1  19
TORSDOF 2
