REMARK  Name = 
REMARK  0 active torsions:
REMARK  status: ('A' for Active; 'I' for Inactive)
REMARK                            x       y       z     vdW  Elec       q    Type
REMARK                         _______ _______ _______ _____ _____    ______ ____
ROOT
ATOM      1 CL   UNL     1      -0.186   2.741  -1.405  1.00  0.00    +0.000 Cl
ATOM      2  C   UNL     1      -0.081   1.189  -0.609  1.00  0.00    +0.000 A 
ATOM      3  C   UNL     1      -1.273   0.498  -0.281  1.00  0.00    +0.000 A 
ATOM      4  C   UNL     1      -2.591   0.960  -0.545  1.00  0.00    +0.000 A 
ATOM      5  C   UNL     1      -3.709   0.210  -0.185  1.00  0.00    +0.000 A 
ATOM      6  C   UNL     1      -3.534  -1.013   0.444  1.00  0.00    +0.000 A 
ATOM      7  C   UNL     1      -2.242  -1.473   0.706  1.00  0.00    +0.000 A 
ATOM      8  C   UNL     1      -1.113  -0.743   0.356  1.00  0.00    +0.000 A 
ATOM      9  N   UNL     1       0.086  -1.265   0.648  1.00  0.00    +0.000 NA
ATOM     10  C   UNL     1       1.204  -0.598   0.331  1.00  0.00    +0.000 A 
ATOM     11  C   UNL     1       2.422  -1.183   0.655  1.00  0.00    +0.000 A 
ATOM     12  C   UNL     1       3.641  -0.566   0.365  1.00  0.00    +0.000 A 
ATOM     13  C   UNL     1       3.650   0.668  -0.265  1.00  0.00    +0.000 A 
ATOM     14  C   UNL     1       2.439   1.273  -0.600  1.00  0.00    +0.000 A 
ATOM     15  C   UNL     1       1.195   0.651  -0.308  1.00  0.00    +0.000 A 
ENDROOT
TORSDOF 0
