REMARK  Name = 
REMARK  7 active torsions:
REMARK  status: ('A' for Active; 'I' for Inactive)
REMARK    1  A    between atoms: N_1  and  C_2
REMARK    2  A    between atoms: C_2  and  C_3
REMARK    3  A    between atoms: C_3  and  S_4
REMARK    4  A    between atoms: S_4  and  S_5
REMARK    5  A    between atoms: S_5  and  C_6
REMARK    6  A    between atoms: C_6  and  C_7
REMARK    7  A    between atoms: C_7  and  N_8
REMARK                            x       y       z     vdW  Elec       q    Type
REMARK                         _______ _______ _______ _____ _____    ______ ____
ROOT
ATOM      1  S   UNL     1       0.335   0.288   0.941  1.00  0.00    +0.000 S 
ENDROOT
BRANCH   1   2
ATOM      2  C   UNL     1       1.630   0.799  -0.245  1.00  0.00    +0.000 C 
BRANCH   2   3
ATOM      3  C   UNL     1       2.980   0.154   0.095  1.00  0.00    +0.000 C 
BRANCH   3   4
ATOM      4  N   UNL     1       3.541   0.631   1.360  1.00  0.00    +0.000 NA
ATOM      5  H   UNL     1       2.857   0.479   2.104  1.00  0.00    +0.000 HD
ATOM      6  H   UNL     1       4.356   0.071   1.604  1.00  0.00    +0.000 HD
ENDBRANCH   3   4
ENDBRANCH   2   3
ENDBRANCH   1   2
BRANCH   1   7
ATOM      7  S   UNL     1      -1.314   1.307   0.249  1.00  0.00    +0.000 S 
BRANCH   7   8
ATOM      8  C   UNL     1      -1.970   0.211  -1.062  1.00  0.00    +0.000 C 
BRANCH   8   9
ATOM      9  C   UNL     1      -2.497  -1.139  -0.556  1.00  0.00    +0.000 C 
BRANCH   9  10
ATOM     10  N   UNL     1      -3.541  -1.030   0.465  1.00  0.00    +0.000 NA
ATOM     11  H   UNL     1      -3.148  -0.538   1.272  1.00  0.00    +0.000 HD
ATOM     12  H   UNL     1      -4.292  -0.429   0.127  1.00  0.00    +0.000 HD
ENDBRANCH   9  10
ENDBRANCH   8   9
ENDBRANCH   7   8
ENDBRANCH   1   7
TORSDOF 7
