REMARK  Name = 
REMARK  1 active torsions:
REMARK  status: ('A' for Active; 'I' for Inactive)
REMARK    1  A    between atoms: N_1  and  C_2
REMARK                            x       y       z     vdW  Elec       q    Type
REMARK                         _______ _______ _______ _____ _____    ______ ____
ROOT
ATOM      1  C   UNL     1       0.151   1.113   0.057  1.00  0.00    +0.000 A 
ATOM      2  C   UNL     1      -1.167   0.592  -0.057  1.00  0.00    +0.000 A 
ATOM      3  C   UNL     1      -2.357   1.351   0.101  1.00  0.00    +0.000 A 
ATOM      4  C   UNL     1      -3.617   0.773  -0.059  1.00  0.00    +0.000 A 
ATOM      5  C   UNL     1      -3.715  -0.572  -0.377  1.00  0.00    +0.000 A 
ATOM      6  C   UNL     1      -2.551  -1.328  -0.519  1.00  0.00    +0.000 A 
ATOM      7  C   UNL     1      -1.288  -0.775  -0.357  1.00  0.00    +0.000 A 
ATOM      8  N   UNL     1      -0.233  -1.587  -0.489  1.00  0.00    +0.000 NA
ATOM      9  C   UNL     1       1.018  -1.129  -0.279  1.00  0.00    +0.000 A 
ATOM     10  C   UNL     1       2.115  -2.002  -0.351  1.00  0.00    +0.000 A 
ATOM     11 CL   UNL     1       1.891  -3.680  -0.738  1.00  0.00    +0.000 Cl
ATOM     12  C   UNL     1       3.427  -1.580  -0.115  1.00  0.00    +0.000 A 
ATOM     13  C   UNL     1       3.671  -0.257   0.211  1.00  0.00    +0.000 A 
ATOM     14  C   UNL     1       2.603   0.633   0.282  1.00  0.00    +0.000 A 
ATOM     15  C   UNL     1       1.266   0.226   0.027  1.00  0.00    +0.000 A 
ENDROOT
BRANCH   1  16
ATOM     16  N   UNL     1       0.343   2.485   0.391  1.00  0.00    +0.000 N 
ATOM     17  H   UNL     1      -0.407   3.082   0.058  1.00  0.00    +0.000 HD
ATOM     18  H   UNL     1       1.236   2.850   0.078  1.00  0.00    +0.000 HD
ENDBRANCH   1  16
TORSDOF 1
