REMARK  Name = 
REMARK  2 active torsions:
REMARK  status: ('A' for Active; 'I' for Inactive)
REMARK    1  A    between atoms: C_6  and  C_7
REMARK    2  A    between atoms: C_10  and  C_11
REMARK                            x       y       z     vdW  Elec       q    Type
REMARK                         _______ _______ _______ _____ _____    ______ ____
ROOT
ATOM      1  C   UNL     1      -1.421  -0.070   0.060  1.00  0.00    +0.000 A 
ATOM      2  C   UNL     1      -0.752   1.119  -0.261  1.00  0.00    +0.000 A 
ATOM      3  C   UNL     1       0.648   1.192  -0.265  1.00  0.00    +0.000 A 
ATOM      4  C   UNL     1       1.421   0.071   0.054  1.00  0.00    +0.000 A 
ATOM      5  C   UNL     1       0.752  -1.119   0.375  1.00  0.00    +0.000 A 
ATOM      6  C   UNL     1      -0.648  -1.192   0.379  1.00  0.00    +0.000 A 
ENDROOT
BRANCH   1  12
ATOM      7  C   UNL     1      -7.371   0.462  -0.156  1.00  0.00    +0.000 A 
ATOM      8  C   UNL     1      -7.363  -0.885   0.216  1.00  0.00    +0.000 A 
ATOM      9  C   UNL     1      -6.163  -1.577   0.422  1.00  0.00    +0.000 A 
ATOM     10  C   UNL     1      -4.985  -0.852   0.235  1.00  0.00    +0.000 A 
ATOM     11  N   UNL     1      -3.662  -1.191   0.344  1.00  0.00    +0.000 N 
ATOM     12  C   UNL     1      -2.889  -0.089   0.048  1.00  0.00    +0.000 A 
ATOM     13  N   UNL     1      -3.670   0.937  -0.245  1.00  0.00    +0.000 NA
ATOM     14  C   UNL     1      -4.961   0.485  -0.135  1.00  0.00    +0.000 A 
ATOM     15  C   UNL     1      -6.172   1.163  -0.336  1.00  0.00    +0.000 A 
ATOM     16  H   UNL     1      -3.314  -2.102   0.600  1.00  0.00    +0.000 HD
ENDBRANCH   1  12
BRANCH   4  17
ATOM     17  C   UNL     1       2.889   0.089   0.066  1.00  0.00    +0.000 A 
ATOM     18  N   UNL     1       3.670  -0.937   0.359  1.00  0.00    +0.000 NA
ATOM     19  C   UNL     1       4.961  -0.485   0.249  1.00  0.00    +0.000 A 
ATOM     20  C   UNL     1       6.172  -1.163   0.450  1.00  0.00    +0.000 A 
ATOM     21  C   UNL     1       7.371  -0.462   0.270  1.00  0.00    +0.000 A 
ATOM     22  C   UNL     1       7.363   0.885  -0.102  1.00  0.00    +0.000 A 
ATOM     23  C   UNL     1       6.163   1.577  -0.308  1.00  0.00    +0.000 A 
ATOM     24  C   UNL     1       4.985   0.852  -0.121  1.00  0.00    +0.000 A 
ATOM     25  N   UNL     1       3.662   1.191  -0.230  1.00  0.00    +0.000 N 
ATOM     26  H   UNL     1       3.314   2.102  -0.486  1.00  0.00    +0.000 HD
ENDBRANCH   4  17
TORSDOF 2
