REMARK  Name = 
REMARK  1 active torsions:
REMARK  status: ('A' for Active; 'I' for Inactive)
REMARK    1  A    between atoms: C_5  and  C_6
REMARK                            x       y       z     vdW  Elec       q    Type
REMARK                         _______ _______ _______ _____ _____    ______ ____
ROOT
ATOM      1  C   UNL     1      -0.183  -0.085  -0.096  1.00  0.00    +0.000 A 
ATOM      2  N   UNL     1       0.559  -1.032  -0.646  1.00  0.00    +0.000 NA
ATOM      3  C   UNL     1       1.849  -0.566  -0.642  1.00  0.00    +0.000 A 
ATOM      4  C   UNL     1       3.026  -1.170  -1.106  1.00  0.00    +0.000 A 
ATOM      5  C   UNL     1       4.233  -0.471  -0.982  1.00  0.00    +0.000 A 
ATOM      6  C   UNL     1       4.267   0.803  -0.408  1.00  0.00    +0.000 A 
ATOM      7  C   UNL     1       3.101   1.421   0.060  1.00  0.00    +0.000 A 
ATOM      8  C   UNL     1       1.914   0.700  -0.077  1.00  0.00    +0.000 A 
ATOM      9  N   UNL     1       0.615   0.981   0.260  1.00  0.00    +0.000 N 
ATOM     10  H   UNL     1       0.301   1.832   0.698  1.00  0.00    +0.000 HD
ENDROOT
BRANCH   1  15
ATOM     11  F   UNL     1      -5.735  -0.468   0.625  1.00  0.00    +0.000 F 
ATOM     12  C   UNL     1      -4.410  -0.367   0.457  1.00  0.00    +0.000 A 
ATOM     13  C   UNL     1      -3.712  -1.412  -0.131  1.00  0.00    +0.000 A 
ATOM     14  C   UNL     1      -2.330  -1.302  -0.303  1.00  0.00    +0.000 A 
ATOM     15  C   UNL     1      -1.636  -0.150   0.109  1.00  0.00    +0.000 A 
ATOM     16  C   UNL     1      -2.368   0.893   0.701  1.00  0.00    +0.000 A 
ATOM     17  C   UNL     1      -3.752   0.783   0.874  1.00  0.00    +0.000 A 
ENDBRANCH   1  15
TORSDOF 1
