REMARK  Name = 
REMARK  4 active torsions:
REMARK  status: ('A' for Active; 'I' for Inactive)
REMARK    1  A    between atoms: C_4  and  C_5
REMARK    2  A    between atoms: C_8  and  O_9
REMARK    3  A    between atoms: C_10  and  O_11
REMARK    4  A    between atoms: C_19  and  O_20
REMARK                            x       y       z     vdW  Elec       q    Type
REMARK                         _______ _______ _______ _____ _____    ______ ____
ROOT
ATOM      1  O   UNL     1      -2.409  -2.881   0.257  1.00  0.00    +0.000 OA
ATOM      2  C   UNL     1      -1.845  -1.797   0.166  1.00  0.00    +0.000 A 
ATOM      3  C   UNL     1      -0.392  -1.696  -0.027  1.00  0.00    +0.000 A 
ATOM      4  C   UNL     1       0.169  -0.481  -0.121  1.00  0.00    +0.000 A 
ATOM      5  O   UNL     1      -0.533   0.711  -0.031  1.00  0.00    +0.000 OA
ATOM      6  C   UNL     1      -1.894   0.659   0.141  1.00  0.00    +0.000 A 
ATOM      7  C   UNL     1      -2.572   1.875   0.211  1.00  0.00    +0.000 A 
ATOM      8  C   UNL     1      -3.952   1.875   0.387  1.00  0.00    +0.000 A 
ATOM      9  F   UNL     1      -4.603   3.044   0.456  1.00  0.00    +0.000 F 
ATOM     10  C   UNL     1      -4.667   0.687   0.495  1.00  0.00    +0.000 A 
ATOM     11  C   UNL     1      -3.986  -0.525   0.424  1.00  0.00    +0.000 A 
ATOM     12  C   UNL     1      -2.598  -0.540   0.246  1.00  0.00    +0.000 A 
ENDROOT
BRANCH   4  13
ATOM     13  C   UNL     1       1.624  -0.312  -0.306  1.00  0.00    +0.000 A 
ATOM     14  C   UNL     1       2.339  -1.096  -1.232  1.00  0.00    +0.000 A 
ATOM     15  C   UNL     1       3.714  -0.921  -1.407  1.00  0.00    +0.000 A 
ATOM     16  C   UNL     1       4.374   0.041  -0.661  1.00  0.00    +0.000 A 
ATOM     17  C   UNL     1       3.683   0.832   0.252  1.00  0.00    +0.000 A 
ATOM     18  C   UNL     1       2.313   0.665   0.433  1.00  0.00    +0.000 A 
BRANCH  16  19
ATOM     19  O   UNL     1       5.718   0.211  -0.832  1.00  0.00    +0.000 OA
ATOM     20  H   UNL     1       5.956   0.932  -0.215  1.00  0.00    +0.000 HD
ENDBRANCH  16  19
BRANCH  17  21
ATOM     21  O   UNL     1       4.397   1.765   0.951  1.00  0.00    +0.000 OA
ATOM     22  H   UNL     1       3.786   2.242   1.539  1.00  0.00    +0.000 HD
ENDBRANCH  17  21
ENDBRANCH   4  13
BRANCH  11  23
ATOM     23  O   UNL     1      -4.736  -1.663   0.535  1.00  0.00    +0.000 OA
ATOM     24  H   UNL     1      -4.135  -2.440   0.469  1.00  0.00    +0.000 HD
ENDBRANCH  11  23
TORSDOF 4
