REMARK  Name = 
REMARK  6 active torsions:
REMARK  status: ('A' for Active; 'I' for Inactive)
REMARK    1  A    between atoms: C_1  and  O_2
REMARK    2  A    between atoms: O_2  and  C_3
REMARK    3  A    between atoms: C_5  and  O_6
REMARK    4  A    between atoms: C_10  and  C_11
REMARK    5  A    between atoms: C_14  and  O_15
REMARK    6  A    between atoms: C_16  and  O_17
REMARK                            x       y       z     vdW  Elec       q    Type
REMARK                         _______ _______ _______ _____ _____    ______ ____
ROOT
ATOM      1  C   UNL     1      -3.365   0.232   0.163  1.00  0.00    +0.000 A 
ATOM      2  C   UNL     1      -3.972  -0.812  -0.548  1.00  0.00    +0.000 A 
ATOM      3  C   UNL     1      -3.196  -1.775  -1.189  1.00  0.00    +0.000 A 
ATOM      4  C   UNL     1      -1.812  -1.725  -1.137  1.00  0.00    +0.000 A 
ATOM      5  C   UNL     1      -1.196  -0.690  -0.431  1.00  0.00    +0.000 A 
ATOM      6  O   UNL     1       0.177  -0.713  -0.427  1.00  0.00    +0.000 OA
ATOM      7  C   UNL     1       0.853   0.299   0.228  1.00  0.00    +0.000 A 
ATOM      8  C   UNL     1       0.251   1.291   0.895  1.00  0.00    +0.000 A 
ATOM      9  C   UNL     1      -1.221   1.353   0.946  1.00  0.00    +0.000 A 
ATOM     10  O   UNL     1      -1.746   2.261   1.576  1.00  0.00    +0.000 OA
ATOM     11  C   UNL     1      -1.958   0.289   0.219  1.00  0.00    +0.000 A 
ENDROOT
BRANCH   7  12
ATOM     12  C   UNL     1       2.322   0.189   0.160  1.00  0.00    +0.000 A 
ATOM     13  C   UNL     1       2.941  -1.064   0.335  1.00  0.00    +0.000 A 
ATOM     14  C   UNL     1       4.332  -1.201   0.268  1.00  0.00    +0.000 A 
ATOM     15  C   UNL     1       5.109  -0.078   0.017  1.00  0.00    +0.000 A 
ATOM     16  C   UNL     1       4.508   1.163  -0.167  1.00  0.00    +0.000 A 
ATOM     17  C   UNL     1       3.127   1.308  -0.101  1.00  0.00    +0.000 A 
BRANCH  15  18
ATOM     18  O   UNL     1       6.472  -0.143  -0.061  1.00  0.00    +0.000 OA
ATOM     19  H   UNL     1       6.742  -1.065   0.095  1.00  0.00    +0.000 HD
ENDBRANCH  15  18
BRANCH  16  20
ATOM     20  O   UNL     1       5.279   2.262  -0.420  1.00  0.00    +0.000 OA
ATOM     21  H   UNL     1       6.197   1.925  -0.419  1.00  0.00    +0.000 HD
ENDBRANCH  16  20
ENDBRANCH   7  12
BRANCH   1  23
ATOM     22  C   UNL     1      -5.486   1.174   0.760  1.00  0.00    +0.000 C 
ATOM     23  O   UNL     1      -4.067   1.209   0.813  1.00  0.00    +0.000 OA
ENDBRANCH   1  23
BRANCH   3  24
ATOM     24  O   UNL     1      -3.847  -2.763  -1.865  1.00  0.00    +0.000 OA
ATOM     25  H   UNL     1      -3.194  -3.354  -2.276  1.00  0.00    +0.000 HD
ENDBRANCH   3  24
TORSDOF 5
