REMARK  Name = 
REMARK  2 active torsions:
REMARK  status: ('A' for Active; 'I' for Inactive)
REMARK    1  A    between atoms: N_1  and  C_2
REMARK    2  A    between atoms: C_12  and  C_13
REMARK                            x       y       z     vdW  Elec       q    Type
REMARK                         _______ _______ _______ _____ _____    ______ ____
ROOT
ATOM      1  C   UNL     1      -0.906  -1.189   0.225  1.00  0.00    +0.000 A 
ATOM      2  C   UNL     1      -1.907  -0.181   0.319  1.00  0.00    +0.000 A 
ATOM      3  C   UNL     1      -3.284  -0.430   0.558  1.00  0.00    +0.000 A 
ATOM      4  C   UNL     1      -4.215   0.607   0.606  1.00  0.00    +0.000 A 
ATOM      5  C   UNL     1      -3.791   1.913   0.420  1.00  0.00    +0.000 A 
ATOM      6  C   UNL     1      -2.437   2.170   0.200  1.00  0.00    +0.000 A 
ATOM      7  C   UNL     1      -1.491   1.154   0.155  1.00  0.00    +0.000 A 
ATOM      8  N   UNL     1      -0.213   1.505  -0.037  1.00  0.00    +0.000 NA
ATOM      9  C   UNL     1       0.737   0.564  -0.025  1.00  0.00    +0.000 A 
ATOM     10  C   UNL     1       2.053   0.984  -0.162  1.00  0.00    +0.000 A 
ATOM     11  C   UNL     1       3.135   0.091  -0.142  1.00  0.00    +0.000 A 
ATOM     12  C   UNL     1       2.872  -1.266   0.040  1.00  0.00    +0.000 A 
ATOM     13  C   UNL     1       1.555  -1.709   0.171  1.00  0.00    +0.000 A 
ATOM     14  C   UNL     1       0.461  -0.807   0.128  1.00  0.00    +0.000 A 
ENDROOT
BRANCH  11  15
ATOM     15  C   UNL     1       4.547   0.603  -0.267  1.00  0.00    +0.000 C 
ATOM     16  F   UNL     1       5.414  -0.335  -0.741  1.00  0.00    +0.000 F 
ATOM     17  F   UNL     1       5.056   1.012   0.927  1.00  0.00    +0.000 F 
ATOM     18  F   UNL     1       4.657   1.668  -1.108  1.00  0.00    +0.000 F 
ENDBRANCH  11  15
BRANCH   1  19
ATOM     19  N   UNL     1      -1.250  -2.556   0.423  1.00  0.00    +0.000 N 
ATOM     20  H   UNL     1      -0.599  -3.198  -0.014  1.00  0.00    +0.000 HD
ATOM     21  H   UNL     1      -2.197  -2.773   0.130  1.00  0.00    +0.000 HD
ENDBRANCH   1  19
TORSDOF 2
