REMARK  Name = 
REMARK  4 active torsions:
REMARK  status: ('A' for Active; 'I' for Inactive)
REMARK    1  A    between atoms: N_1  and  C_2
REMARK    2  A    between atoms: C_5  and  C_6
REMARK    3  A    between atoms: C_11  and  O_12
REMARK    4  A    between atoms: C_14  and  O_15
REMARK                            x       y       z     vdW  Elec       q    Type
REMARK                         _______ _______ _______ _____ _____    ______ ____
ROOT
ATOM      1  C   UNL     1      -0.275  -0.492  -0.008  1.00  0.00    +0.000 A 
ATOM      2  C   UNL     1       0.270  -1.708  -0.153  1.00  0.00    +0.000 A 
ATOM      3  C   UNL     1       1.734  -1.837  -0.160  1.00  0.00    +0.000 A 
ATOM      4  O   UNL     1       2.284  -2.926  -0.282  1.00  0.00    +0.000 OA
ATOM      5  C   UNL     1       2.514  -0.603  -0.013  1.00  0.00    +0.000 A 
ATOM      6  C   UNL     1       3.913  -0.615  -0.007  1.00  0.00    +0.000 A 
ATOM      7  C   UNL     1       4.624   0.575   0.134  1.00  0.00    +0.000 A 
ATOM      8  C   UNL     1       3.924   1.771   0.268  1.00  0.00    +0.000 A 
ATOM      9  C   UNL     1       2.532   1.794   0.263  1.00  0.00    +0.000 A 
ATOM     10  C   UNL     1       1.826   0.600   0.122  1.00  0.00    +0.000 A 
ATOM     11  O   UNL     1       0.456   0.680   0.122  1.00  0.00    +0.000 OA
ENDROOT
BRANCH   1  15
ATOM     12  C   UNL     1      -4.532   0.161   0.032  1.00  0.00    +0.000 A 
ATOM     13  C   UNL     1      -3.979  -0.931   0.703  1.00  0.00    +0.000 A 
ATOM     14  C   UNL     1      -2.595  -1.145   0.707  1.00  0.00    +0.000 A 
ATOM     15  C   UNL     1      -1.737  -0.293  -0.003  1.00  0.00    +0.000 A 
ATOM     16  C   UNL     1      -2.302   0.773  -0.715  1.00  0.00    +0.000 A 
ATOM     17  C   UNL     1      -3.686   0.981  -0.716  1.00  0.00    +0.000 A 
BRANCH  12  18
ATOM     18  N   UNL     1      -5.920   0.299  -0.068  1.00  0.00    +0.000 N 
ATOM     19  H   UNL     1      -6.431  -0.100   0.713  1.00  0.00    +0.000 HD
ATOM     20  H   UNL     1      -6.225   1.242  -0.286  1.00  0.00    +0.000 HD
ENDBRANCH  12  18
ENDBRANCH   1  15
BRANCH   6  21
ATOM     21  O   UNL     1       4.650  -1.762  -0.135  1.00  0.00    +0.000 OA
ATOM     22  H   UNL     1       4.026  -2.518  -0.227  1.00  0.00    +0.000 HD
ENDBRANCH   6  21
BRANCH   8  23
ATOM     23  O   UNL     1       4.576   2.961   0.408  1.00  0.00    +0.000 OA
ATOM     24  H   UNL     1       5.534   2.797   0.397  1.00  0.00    +0.000 HD
ENDBRANCH   8  23
TORSDOF 4
