REMARK  Name = 
REMARK  3 active torsions:
REMARK  status: ('A' for Active; 'I' for Inactive)
REMARK    1  A    between atoms: C_4  and  C_5
REMARK    2  A    between atoms: C_14  and  O_15
REMARK    3  A    between atoms: C_17  and  O_18
REMARK                            x       y       z     vdW  Elec       q    Type
REMARK                         _______ _______ _______ _____ _____    ______ ____
ROOT
ATOM      1  O   UNL     1      -2.026  -1.738  -2.225  1.00  0.00    +0.000 OA
ATOM      2  C   UNL     1      -1.403  -1.088  -1.392  1.00  0.00    +0.000 A 
ATOM      3  C   UNL     1       0.061  -0.968  -1.445  1.00  0.00    +0.000 A 
ATOM      4  C   UNL     1       0.689  -0.250  -0.502  1.00  0.00    +0.000 A 
ATOM      5  O   UNL     1       0.043   0.413   0.531  1.00  0.00    +0.000 OA
ATOM      6  C   UNL     1      -1.324   0.322   0.615  1.00  0.00    +0.000 A 
ATOM      7  C   UNL     1      -1.941   0.993   1.671  1.00  0.00    +0.000 A 
ATOM      8  C   UNL     1      -3.326   0.934   1.803  1.00  0.00    +0.000 A 
ATOM      9  C   UNL     1      -4.105   0.217   0.898  1.00  0.00    +0.000 A 
ATOM     10  C   UNL     1      -3.483  -0.450  -0.154  1.00  0.00    +0.000 A 
ATOM     11  C   UNL     1      -2.092  -0.399  -0.296  1.00  0.00    +0.000 A 
ENDROOT
BRANCH   4  12
ATOM     12  C   UNL     1       2.155  -0.082  -0.505  1.00  0.00    +0.000 A 
ATOM     13  C   UNL     1       2.716   1.174  -0.229  1.00  0.00    +0.000 A 
ATOM     14  C   UNL     1       4.102   1.352  -0.219  1.00  0.00    +0.000 A 
ATOM     15  C   UNL     1       4.945   0.274  -0.478  1.00  0.00    +0.000 A 
ATOM     16  C   UNL     1       4.404  -0.982  -0.743  1.00  0.00    +0.000 A 
ATOM     17  C   UNL     1       3.018  -1.160  -0.754  1.00  0.00    +0.000 A 
ENDBRANCH   4  12
BRANCH   8  18
ATOM     18  O   UNL     1      -3.891   1.604   2.848  1.00  0.00    +0.000 OA
ATOM     19  H   UNL     1      -4.854   1.475   2.820  1.00  0.00    +0.000 HD
ENDBRANCH   8  18
BRANCH  10  20
ATOM     20  O   UNL     1      -4.295  -1.139  -1.014  1.00  0.00    +0.000 OA
ATOM     21  H   UNL     1      -3.728  -1.557  -1.702  1.00  0.00    +0.000 HD
ENDBRANCH  10  20
TORSDOF 3
