REMARK  Name = 
REMARK  2 active torsions:
REMARK  status: ('A' for Active; 'I' for Inactive)
REMARK    1  A    between atoms: N_1  and  C_2
REMARK    2  A    between atoms: C_7  and  C_8
REMARK                            x       y       z     vdW  Elec       q    Type
REMARK                         _______ _______ _______ _____ _____    ______ ____
ROOT
ATOM      1  C   UNL     1      -3.856   0.422   0.323  1.00  0.00    +0.000 A 
ATOM      2  C   UNL     1      -3.717  -0.862   0.866  1.00  0.00    +0.000 A 
ATOM      3  C   UNL     1      -2.477  -1.512   0.935  1.00  0.00    +0.000 A 
ATOM      4  C   UNL     1      -1.374  -0.795   0.473  1.00  0.00    +0.000 A 
ATOM      5  N   UNL     1      -0.039  -1.095   0.395  1.00  0.00    +0.000 N 
ATOM      6  C   UNL     1       0.634  -0.013  -0.130  1.00  0.00    +0.000 A 
ATOM      7  N   UNL     1      -0.221   0.965  -0.379  1.00  0.00    +0.000 NA
ATOM      8  C   UNL     1      -1.461   0.498  -0.019  1.00  0.00    +0.000 A 
ATOM      9  C   UNL     1      -2.712   1.130  -0.074  1.00  0.00    +0.000 A 
ATOM     10  H   UNL     1       0.381  -1.961   0.690  1.00  0.00    +0.000 HD
ENDROOT
BRANCH   6  11
ATOM     11  C   UNL     1       2.084   0.036  -0.357  1.00  0.00    +0.000 A 
ATOM     12  C   UNL     1       2.672   1.249  -0.749  1.00  0.00    +0.000 A 
ATOM     13  C   UNL     1       4.047   1.346  -0.976  1.00  0.00    +0.000 A 
ATOM     14  C   UNL     1       4.858   0.226  -0.815  1.00  0.00    +0.000 A 
ATOM     15  C   UNL     1       4.293  -0.988  -0.430  1.00  0.00    +0.000 A 
ATOM     16  C   UNL     1       2.916  -1.084  -0.203  1.00  0.00    +0.000 A 
ENDBRANCH   6  11
BRANCH   1  17
ATOM     17  N   UNL     1      -5.097   1.074   0.380  1.00  0.00    +0.000 N 
ATOM     18  H   UNL     1      -5.893   0.445   0.349  1.00  0.00    +0.000 HD
ATOM     19  H   UNL     1      -5.184   1.840  -0.281  1.00  0.00    +0.000 HD
ENDBRANCH   1  17
TORSDOF 2
