REMARK  Name = 
REMARK  2 active torsions:
REMARK  status: ('A' for Active; 'I' for Inactive)
REMARK    1  A    between atoms: C_1  and  C_2
REMARK    2  A    between atoms: C_13  and  N_14
REMARK                            x       y       z     vdW  Elec       q    Type
REMARK                         _______ _______ _______ _____ _____    ______ ____
ROOT
ATOM      1  C   UNL     1       4.492  -0.090   0.583  1.00  0.00    +0.000 C 
ATOM      2  C   UNL     1       3.049   0.315   0.632  1.00  0.00    +0.000 A 
ATOM      3  C   UNL     1       2.666   1.510   1.231  1.00  0.00    +0.000 A 
ATOM      4  C   UNL     1       1.316   1.863   1.280  1.00  0.00    +0.000 A 
ATOM      5  C   UNL     1       0.320   1.048   0.760  1.00  0.00    +0.000 A 
ATOM      6  N   UNL     1      -0.942   1.488   0.833  1.00  0.00    +0.000 NA
ATOM      7  C   UNL     1      -1.926   0.760   0.292  1.00  0.00    +0.000 A 
ATOM      8  C   UNL     1      -3.212   1.285   0.331  1.00  0.00    +0.000 A 
ATOM      9  C   UNL     1      -4.302   0.617  -0.228  1.00  0.00    +0.000 A 
ATOM     10  C   UNL     1      -4.108  -0.607  -0.847  1.00  0.00    +0.000 A 
ATOM     11  C   UNL     1      -2.827  -1.157  -0.892  1.00  0.00    +0.000 A 
ATOM     12  C   UNL     1      -1.713  -0.493  -0.314  1.00  0.00    +0.000 A 
ATOM     13  C   UNL     1      -0.386  -1.007  -0.294  1.00  0.00    +0.000 A 
ATOM     14  C   UNL     1       0.674  -0.185   0.183  1.00  0.00    +0.000 A 
ATOM     15  C   UNL     1       2.052  -0.528   0.124  1.00  0.00    +0.000 A 
ENDROOT
BRANCH  13  16
ATOM     16  N   UNL     1      -0.095  -2.252  -0.922  1.00  0.00    +0.000 N 
ATOM     17  H   UNL     1      -0.874  -2.901  -0.889  1.00  0.00    +0.000 HD
ATOM     18  H   UNL     1       0.739  -2.695  -0.552  1.00  0.00    +0.000 HD
ENDBRANCH  13  16
TORSDOF 1
