REMARK  Name = 
REMARK  5 active torsions:
REMARK  status: ('A' for Active; 'I' for Inactive)
REMARK    1  A    between atoms: C_4  and  C_5
REMARK    2  A    between atoms: C_8  and  O_9
REMARK    3  A    between atoms: C_10  and  O_11
REMARK    4  A    between atoms: C_16  and  O_17
REMARK    5  A    between atoms: C_19  and  O_20
REMARK                            x       y       z     vdW  Elec       q    Type
REMARK                         _______ _______ _______ _____ _____    ______ ____
ROOT
ATOM      1  O   UNL     1      -2.421  -2.016   2.077  1.00  0.00    +0.000 OA
ATOM      2  C   UNL     1      -1.806  -1.285   1.309  1.00  0.00    +0.000 A 
ATOM      3  C   UNL     1      -0.344  -1.361   1.177  1.00  0.00    +0.000 A 
ATOM      4  C   UNL     1       0.275  -0.535   0.321  1.00  0.00    +0.000 A 
ATOM      5  O   UNL     1      -0.372   0.415  -0.454  1.00  0.00    +0.000 OA
ATOM      6  C   UNL     1      -1.739   0.508  -0.370  1.00  0.00    +0.000 A 
ATOM      7  C   UNL     1      -2.359   1.460  -1.181  1.00  0.00    +0.000 A 
ATOM      8  C   UNL     1      -3.744   1.597  -1.131  1.00  0.00    +0.000 A 
ATOM      9  C   UNL     1      -4.514   0.802  -0.285  1.00  0.00    +0.000 A 
ATOM     10  C   UNL     1      -3.891  -0.146   0.520  1.00  0.00    +0.000 A 
ATOM     11  C   UNL     1      -2.501  -0.295   0.478  1.00  0.00    +0.000 A 
ENDROOT
BRANCH   4  12
ATOM     12  C   UNL     1       1.740  -0.556   0.151  1.00  0.00    +0.000 A 
ATOM     13  C   UNL     1       2.440  -1.768  -0.003  1.00  0.00    +0.000 A 
ATOM     14  C   UNL     1       3.827  -1.777  -0.172  1.00  0.00    +0.000 A 
ATOM     15  C   UNL     1       4.514  -0.574  -0.194  1.00  0.00    +0.000 A 
ATOM     16  C   UNL     1       3.838   0.634  -0.051  1.00  0.00    +0.000 A 
ATOM     17  C   UNL     1       2.457   0.653   0.118  1.00  0.00    +0.000 A 
BRANCH  15  18
ATOM     18  O   UNL     1       5.868  -0.584  -0.359  1.00  0.00    +0.000 OA
ATOM     19  H   UNL     1       6.126   0.360  -0.343  1.00  0.00    +0.000 HD
ENDBRANCH  15  18
BRANCH  16  20
ATOM     20  O   UNL     1       4.579   1.783  -0.083  1.00  0.00    +0.000 OA
ATOM     21  H   UNL     1       3.978   2.539   0.035  1.00  0.00    +0.000 HD
ENDBRANCH  16  20
ENDBRANCH   4  12
BRANCH   8  22
ATOM     22  O   UNL     1      -4.394   2.513  -1.905  1.00  0.00    +0.000 OA
ATOM     23  H   UNL     1      -3.750   2.981  -2.460  1.00  0.00    +0.000 HD
ENDBRANCH   8  22
BRANCH  10  24
ATOM     24  O   UNL     1      -4.696  -0.900   1.330  1.00  0.00    +0.000 OA
ATOM     25  H   UNL     1      -4.129  -1.523   1.838  1.00  0.00    +0.000 HD
ENDBRANCH  10  24
TORSDOF 5
