REMARK  Name = 
REMARK  11 active torsions:
REMARK  status: ('A' for Active; 'I' for Inactive)
REMARK    1  A    between atoms: C_1  and  O_2
REMARK    2  A    between atoms: O_2  and  C_3
REMARK    3  A    between atoms: C_5  and  C_6
REMARK    4  A    between atoms: C_7  and  C_8
REMARK    5  A    between atoms: C_8  and  C_10
REMARK    6  A    between atoms: C_12  and  O_13
REMARK    7  A    between atoms: C_14  and  O_15
REMARK    8  A    between atoms: C_16  and  O_17
REMARK    9  A    between atoms: C_20  and  O_21
REMARK   10  A    between atoms: O_21  and  C_22
REMARK   11  A    between atoms: C_23  and  O_24
REMARK                            x       y       z     vdW  Elec       q    Type
REMARK                         _______ _______ _______ _____ _____    ______ ____
ROOT
ATOM      1  C   UNL     1      -0.400   1.047  -0.847  1.00  0.00    +0.000 C 
ATOM      2  C   UNL     1       0.684   0.516  -0.261  1.00  0.00    +0.000 C 
ENDROOT
BRANCH   1   5
ATOM      3  C   UNL     1      -3.352  -1.310  -0.559  1.00  0.00    +0.000 A 
ATOM      4  C   UNL     1      -2.047  -0.843  -0.734  1.00  0.00    +0.000 A 
ATOM      5  C   UNL     1      -1.760   0.530  -0.648  1.00  0.00    +0.000 A 
ATOM      6  C   UNL     1      -2.797   1.446  -0.409  1.00  0.00    +0.000 A 
ATOM      7  C   UNL     1      -4.103   0.996  -0.228  1.00  0.00    +0.000 A 
ATOM      8  C   UNL     1      -4.365  -0.380  -0.301  1.00  0.00    +0.000 A 
BRANCH   3  10
ATOM      9  C   UNL     1      -2.748  -3.582  -0.972  1.00  0.00    +0.000 C 
ATOM     10  O   UNL     1      -3.734  -2.624  -0.617  1.00  0.00    +0.000 OA
ENDBRANCH   3  10
BRANCH   7  11
ATOM     11  O   UNL     1      -5.201   1.781   0.023  1.00  0.00    +0.000 OA
ATOM     12  C   UNL     1      -4.980   3.185   0.096  1.00  0.00    +0.000 C 
ENDBRANCH   7  11
BRANCH   8  13
ATOM     13  O   UNL     1      -5.657  -0.816  -0.120  1.00  0.00    +0.000 OA
ATOM     14  H   UNL     1      -6.180  -0.008   0.037  1.00  0.00    +0.000 HD
ENDBRANCH   8  13
ENDBRANCH   1   5
BRANCH   2  15
ATOM     15  C   UNL     1       2.015   1.141  -0.491  1.00  0.00    +0.000 C 
ATOM     16  O   UNL     1       2.134   2.227  -1.050  1.00  0.00    +0.000 OA
BRANCH  15  17
ATOM     17  C   UNL     1       3.224   0.435   0.014  1.00  0.00    +0.000 A 
ATOM     18  C   UNL     1       4.340   1.220   0.347  1.00  0.00    +0.000 A 
ATOM     19  C   UNL     1       5.492   0.603   0.818  1.00  0.00    +0.000 A 
ATOM     20  C   UNL     1       5.548  -0.782   0.955  1.00  0.00    +0.000 A 
ATOM     21  C   UNL     1       4.450  -1.565   0.607  1.00  0.00    +0.000 A 
ATOM     22  C   UNL     1       3.285  -0.963   0.131  1.00  0.00    +0.000 A 
BRANCH  19  23
ATOM     23  O   UNL     1       6.604   1.323   1.162  1.00  0.00    +0.000 OA
ATOM     24  H   UNL     1       6.433   2.264   0.978  1.00  0.00    +0.000 HD
ENDBRANCH  19  23
BRANCH  20  25
ATOM     25  O   UNL     1       6.697  -1.358   1.424  1.00  0.00    +0.000 OA
ATOM     26  H   UNL     1       7.306  -0.612   1.584  1.00  0.00    +0.000 HD
ENDBRANCH  20  25
BRANCH  21  27
ATOM     27  O   UNL     1       4.531  -2.923   0.732  1.00  0.00    +0.000 OA
ATOM     28  H   UNL     1       3.718  -3.338   0.408  1.00  0.00    +0.000 HD
ENDBRANCH  21  27
ENDBRANCH  15  17
ENDBRANCH   2  15
TORSDOF 9
