REMARK  Name = 
REMARK  4 active torsions:
REMARK  status: ('A' for Active; 'I' for Inactive)
REMARK    1  A    between atoms: C_4  and  C_5
REMARK    2  A    between atoms: C_8  and  O_9
REMARK    3  A    between atoms: C_10  and  O_11
REMARK    4  A    between atoms: C_18  and  O_19
REMARK                            x       y       z     vdW  Elec       q    Type
REMARK                         _______ _______ _______ _____ _____    ______ ____
ROOT
ATOM      1  O   UNL     1       2.493  -1.238  -2.502  1.00  0.00    +0.000 OA
ATOM      2  C   UNL     1       1.923  -0.752  -1.531  1.00  0.00    +0.000 A 
ATOM      3  C   UNL     1       0.457  -0.743  -1.422  1.00  0.00    +0.000 A 
ATOM      4  C   UNL     1      -0.111  -0.196  -0.338  1.00  0.00    +0.000 A 
ATOM      5  O   UNL     1       0.597   0.359   0.718  1.00  0.00    +0.000 OA
ATOM      6  C   UNL     1       1.968   0.374   0.650  1.00  0.00    +0.000 A 
ATOM      7  C   UNL     1       2.650   0.951   1.722  1.00  0.00    +0.000 A 
ATOM      8  C   UNL     1       4.046   0.997   1.716  1.00  0.00    +0.000 A 
ATOM      9  C   UNL     1       4.759   0.466   0.639  1.00  0.00    +0.000 A 
ATOM     10  C   UNL     1       4.076  -0.109  -0.430  1.00  0.00    +0.000 A 
ATOM     11  C   UNL     1       2.679  -0.155  -0.425  1.00  0.00    +0.000 A 
ENDROOT
BRANCH   4  12
ATOM     12  C   UNL     1      -1.577  -0.164  -0.163  1.00  0.00    +0.000 A 
ATOM     13  C   UNL     1      -2.138  -0.465   1.092  1.00  0.00    +0.000 A 
ATOM     14  C   UNL     1      -3.522  -0.424   1.290  1.00  0.00    +0.000 A 
ATOM     15  C   UNL     1      -4.347  -0.075   0.234  1.00  0.00    +0.000 A 
ATOM     16  C   UNL     1      -3.809   0.200  -1.019  1.00  0.00    +0.000 A 
ATOM     17  C   UNL     1      -2.434   0.178  -1.221  1.00  0.00    +0.000 A 
BRANCH  15  18
ATOM     18  O   UNL     1      -5.690   0.027   0.449  1.00  0.00    +0.000 OA
ATOM     19  H   UNL     1      -5.986   0.809  -0.053  1.00  0.00    +0.000 HD
ENDBRANCH  15  18
BRANCH  16  20
ATOM     20  O   UNL     1      -4.625   0.470  -2.079  1.00  0.00    +0.000 OA
ATOM     21  H   UNL     1      -5.420  -0.081  -1.958  1.00  0.00    +0.000 HD
ENDBRANCH  16  20
ENDBRANCH   4  12
BRANCH  10  22
ATOM     22  O   UNL     1       4.836  -0.610  -1.452  1.00  0.00    +0.000 OA
ATOM     23  H   UNL     1       4.229  -0.982  -2.130  1.00  0.00    +0.000 HD
ENDBRANCH  10  22
TORSDOF 4
