REMARK  Name = 
REMARK  6 active torsions:
REMARK  status: ('A' for Active; 'I' for Inactive)
REMARK    1  A    between atoms: C_1  and  O_2
REMARK    2  A    between atoms: O_2  and  C_3
REMARK    3  A    between atoms: C_5  and  O_6
REMARK    4  A    between atoms: C_11  and  C_12
REMARK    5  A    between atoms: C_15  and  O_16
REMARK    6  A    between atoms: C_17  and  O_18
REMARK                            x       y       z     vdW  Elec       q    Type
REMARK                         _______ _______ _______ _____ _____    ______ ____
ROOT
ATOM      1  C   UNL     1      -3.556  -0.841   0.061  1.00  0.00    +0.000 A 
ATOM      2  C   UNL     1      -4.002   0.482   0.006  1.00  0.00    +0.000 A 
ATOM      3  C   UNL     1      -3.078   1.525  -0.064  1.00  0.00    +0.000 A 
ATOM      4  C   UNL     1      -1.707   1.254  -0.078  1.00  0.00    +0.000 A 
ATOM      5  C   UNL     1      -0.708   2.326  -0.149  1.00  0.00    +0.000 A 
ATOM      6  O   UNL     1      -1.042   3.505  -0.203  1.00  0.00    +0.000 OA
ATOM      7  C   UNL     1       0.706   1.924  -0.157  1.00  0.00    +0.000 A 
ATOM      8  C   UNL     1       1.010   0.618  -0.109  1.00  0.00    +0.000 A 
ATOM      9  O   UNL     1       0.070  -0.399  -0.034  1.00  0.00    +0.000 OA
ATOM     10  C   UNL     1      -1.260  -0.061  -0.023  1.00  0.00    +0.000 A 
ATOM     11  C   UNL     1      -2.182  -1.106   0.046  1.00  0.00    +0.000 A 
ENDROOT
BRANCH   8  12
ATOM     12  C   UNL     1       2.408   0.149  -0.103  1.00  0.00    +0.000 A 
ATOM     13  C   UNL     1       3.366   0.684  -0.987  1.00  0.00    +0.000 A 
ATOM     14  C   UNL     1       4.689   0.225  -0.983  1.00  0.00    +0.000 A 
ATOM     15  C   UNL     1       5.054  -0.777  -0.093  1.00  0.00    +0.000 A 
ATOM     16  C   UNL     1       4.113  -1.318   0.778  1.00  0.00    +0.000 A 
ATOM     17  C   UNL     1       2.799  -0.870   0.779  1.00  0.00    +0.000 A 
BRANCH  15  18
ATOM     18  O   UNL     1       6.328  -1.268  -0.039  1.00  0.00    +0.000 OA
ATOM     19  H   UNL     1       6.863  -0.801  -0.704  1.00  0.00    +0.000 HD
ENDBRANCH  15  18
BRANCH  16  20
ATOM     20  O   UNL     1       4.480  -2.305   1.648  1.00  0.00    +0.000 OA
ATOM     21  H   UNL     1       5.429  -2.454   1.466  1.00  0.00    +0.000 HD
ENDBRANCH  16  20
ENDBRANCH   8  12
BRANCH   1  23
ATOM     22  C   UNL     1      -5.756  -1.739   0.157  1.00  0.00    +0.000 C 
ATOM     23  O   UNL     1      -4.349  -1.953   0.131  1.00  0.00    +0.000 OA
ENDBRANCH   1  23
BRANCH   3  24
ATOM     24  O   UNL     1      -3.586   2.796  -0.115  1.00  0.00    +0.000 OA
ATOM     25  H   UNL     1      -2.831   3.426  -0.158  1.00  0.00    +0.000 HD
ENDBRANCH   3  24
TORSDOF 5
