REMARK  Name = 
REMARK  7 active torsions:
REMARK  status: ('A' for Active; 'I' for Inactive)
REMARK    1  A    between atoms: N_3  and  C_4
REMARK    2  A    between atoms: C_4  and  C_5
REMARK    3  A    between atoms: C_5  and  S_6
REMARK    4  A    between atoms: S_6  and  S_7
REMARK    5  A    between atoms: S_7  and  C_8
REMARK    6  A    between atoms: C_8  and  C_9
REMARK    7  A    between atoms: C_9  and  N_10
REMARK                            x       y       z     vdW  Elec       q    Type
REMARK                         _______ _______ _______ _____ _____    ______ ____
ROOT
ATOM      1 CL   UNL     1       0.683   0.000   0.000  1.00  0.00    +0.000 Cl
ATOM      2  H   UNL     1      -0.683   0.000   0.000  1.00  0.00    +0.000 HD
ENDROOT
TORSDOF 0
REMARK  Name = 
REMARK  7 active torsions:
REMARK  status: ('A' for Active; 'I' for Inactive)
REMARK    1  A    between atoms: N_3  and  C_4
REMARK    2  A    between atoms: C_4  and  C_5
REMARK    3  A    between atoms: C_5  and  S_6
REMARK    4  A    between atoms: S_6  and  S_7
REMARK    5  A    between atoms: S_7  and  C_8
REMARK    6  A    between atoms: C_8  and  C_9
REMARK    7  A    between atoms: C_9  and  N_10
REMARK                            x       y       z     vdW  Elec       q    Type
REMARK                         _______ _______ _______ _____ _____    ______ ____
ROOT
ATOM      1 CL   UNL     1       0.683   0.000   0.000  1.00  0.00    +0.000 Cl
ATOM      2  H   UNL     1      -0.683   0.000   0.000  1.00  0.00    +0.000 HD
ENDROOT
TORSDOF 0
REMARK  Name = 
REMARK  7 active torsions:
REMARK  status: ('A' for Active; 'I' for Inactive)
REMARK    1  A    between atoms: N_3  and  C_4
REMARK    2  A    between atoms: C_4  and  C_5
REMARK    3  A    between atoms: C_5  and  S_6
REMARK    4  A    between atoms: S_6  and  S_7
REMARK    5  A    between atoms: S_7  and  C_8
REMARK    6  A    between atoms: C_8  and  C_9
REMARK    7  A    between atoms: C_9  and  N_10
REMARK                            x       y       z     vdW  Elec       q    Type
REMARK                         _______ _______ _______ _____ _____    ______ ____
ROOT
ATOM      1  S   UNL     1       0.486   0.153   0.748  1.00  0.00    +0.000 S 
ENDROOT
BRANCH   1   2
ATOM      2  C   UNL     1       1.989   0.553  -0.217  1.00  0.00    +0.000 C 
BRANCH   2   3
ATOM      3  C   UNL     1       3.082  -0.367   0.259  1.00  0.00    +0.000 C 
BRANCH   3   4
ATOM      4  N   UNL     1       3.402  -0.248   1.647  1.00  0.00    +0.000 NA
ATOM      5  H   UNL     1       3.278  -1.136   2.186  1.00  0.00    +0.000 HD
ATOM      6  H   UNL     1       4.310   0.216   1.840  1.00  0.00    +0.000 HD
ENDBRANCH   3   4
ENDBRANCH   2   3
ENDBRANCH   1   2
BRANCH   1   7
ATOM      7  S   UNL     1      -1.135   1.391   0.160  1.00  0.00    +0.000 S 
BRANCH   7   8
ATOM      8  C   UNL     1      -2.078   0.617  -1.194  1.00  0.00    +0.000 C 
BRANCH   8   9
ATOM      9  C   UNL     1      -2.732  -0.642  -0.623  1.00  0.00    +0.000 C 
BRANCH   9  10
ATOM     10  N   UNL     1      -3.618  -0.294   0.473  1.00  0.00    +0.000 NA
ATOM     11  H   UNL     1      -3.601   0.739   0.676  1.00  0.00    +0.000 HD
ATOM     12  H   UNL     1      -4.607  -0.551   0.238  1.00  0.00    +0.000 HD
ENDBRANCH   9  10
ENDBRANCH   8   9
ENDBRANCH   7   8
ENDBRANCH   1   7
TORSDOF 7
