REMARK  Name = 
REMARK  7 active torsions:
REMARK  status: ('A' for Active; 'I' for Inactive)
REMARK    1  A    between atoms: O_1  and  C_2
REMARK    2  A    between atoms: C_4  and  O_5
REMARK    3  A    between atoms: C_10  and  C_11
REMARK    4  A    between atoms: C_13  and  O_14
REMARK    5  A    between atoms: C_15  and  O_16
REMARK    6  A    between atoms: C_17  and  O_18
REMARK    7  A    between atoms: C_20  and  O_21
REMARK                            x       y       z     vdW  Elec       q    Type
REMARK                         _______ _______ _______ _____ _____    ______ ____
ROOT
ATOM      1  C   UNL     1      -4.102   1.153   1.074  1.00  0.00    +0.000 A 
ATOM      2  C   UNL     1      -4.697   0.060   0.449  1.00  0.00    +0.000 A 
ATOM      3  C   UNL     1      -3.891  -0.870  -0.203  1.00  0.00    +0.000 A 
ATOM      4  C   UNL     1      -2.503  -0.705  -0.225  1.00  0.00    +0.000 A 
ATOM      5  C   UNL     1      -1.919   0.392   0.403  1.00  0.00    +0.000 A 
ATOM      6  C   UNL     1      -2.721   1.326   1.057  1.00  0.00    +0.000 A 
ATOM      7  O   UNL     1      -0.566   0.613   0.415  1.00  0.00    +0.000 OA
ATOM      8  C   UNL     1       0.272  -0.301  -0.215  1.00  0.00    +0.000 A 
ATOM      9  C   UNL     1      -0.166  -1.398  -0.861  1.00  0.00    +0.000 A 
ATOM     10  C   UNL     1      -1.623  -1.661  -0.900  1.00  0.00    +0.000 A 
ATOM     11  O   UNL     1      -2.063  -2.650  -1.483  1.00  0.00    +0.000 OA
ENDROOT
BRANCH   8  12
ATOM     12  C   UNL     1       1.702   0.073  -0.125  1.00  0.00    +0.000 A 
ATOM     13  C   UNL     1       2.085   1.409  -0.351  1.00  0.00    +0.000 A 
ATOM     14  C   UNL     1       3.424   1.791  -0.248  1.00  0.00    +0.000 A 
ATOM     15  C   UNL     1       4.389   0.847   0.084  1.00  0.00    +0.000 A 
ATOM     16  C   UNL     1       4.019  -0.475   0.315  1.00  0.00    +0.000 A 
ATOM     17  C   UNL     1       2.687  -0.868   0.220  1.00  0.00    +0.000 A 
BRANCH  14  18
ATOM     18  O   UNL     1       3.796   3.086  -0.470  1.00  0.00    +0.000 OA
ATOM     19  H   UNL     1       3.013   3.614  -0.686  1.00  0.00    +0.000 HD
ENDBRANCH  14  18
BRANCH  15  20
ATOM     20  O   UNL     1       5.707   1.198   0.190  1.00  0.00    +0.000 OA
ATOM     21  H   UNL     1       6.166   0.370   0.429  1.00  0.00    +0.000 HD
ENDBRANCH  15  20
BRANCH  16  22
ATOM     22  O   UNL     1       5.009  -1.365   0.639  1.00  0.00    +0.000 OA
ATOM     23  H   UNL     1       4.608  -2.248   0.720  1.00  0.00    +0.000 HD
ENDBRANCH  16  22
ENDBRANCH   8  12
BRANCH   1  24
ATOM     24  O   UNL     1      -4.849   2.090   1.724  1.00  0.00    +0.000 OA
ATOM     25  H   UNL     1      -5.788   1.845   1.662  1.00  0.00    +0.000 HD
ENDBRANCH   1  24
BRANCH   3  26
ATOM     26  O   UNL     1      -4.527  -1.924  -0.801  1.00  0.00    +0.000 OA
ATOM     27  H   UNL     1      -3.851  -2.499  -1.225  1.00  0.00    +0.000 HD
ENDBRANCH   3  26
BRANCH   9  28
ATOM     28  O   UNL     1       0.654  -2.300  -1.513  1.00  0.00    +0.000 OA
ATOM     29  H   UNL     1       0.047  -2.955  -1.918  1.00  0.00    +0.000 HD
ENDBRANCH   9  28
TORSDOF 7
