REMARK  Name = 
REMARK  2 active torsions:
REMARK  status: ('A' for Active; 'I' for Inactive)
REMARK    1  A    between atoms: C_1  and  C_2
REMARK    2  A    between atoms: C_6  and  C_7
REMARK                            x       y       z     vdW  Elec       q    Type
REMARK                         _______ _______ _______ _____ _____    ______ ____
ROOT
ATOM      1  C   UNL     1      -5.920   1.167   0.998  1.00  0.00    +0.000 C 
ATOM      2  C   UNL     1      -4.571   0.679   0.627  1.00  0.00    +0.000 A 
ATOM      3  N   UNL     1      -3.417   1.156   1.044  1.00  0.00    +0.000 NA
ATOM      4  C   UNL     1      -2.454   0.387   0.438  1.00  0.00    +0.000 A 
ATOM      5  C   UNL     1      -1.057   0.456   0.530  1.00  0.00    +0.000 A 
ATOM      6  C   UNL     1      -0.267  -0.450  -0.203  1.00  0.00    +0.000 A 
ATOM      7  C   UNL     1      -0.898  -1.418  -1.006  1.00  0.00    +0.000 A 
ATOM      8  C   UNL     1      -2.295  -1.504  -1.109  1.00  0.00    +0.000 A 
ATOM      9  C   UNL     1      -3.034  -0.581  -0.372  1.00  0.00    +0.000 A 
ATOM     10  N   UNL     1      -4.383  -0.375  -0.232  1.00  0.00    +0.000 N 
ATOM     11  H   UNL     1      -5.114  -0.906  -0.681  1.00  0.00    +0.000 HD
ENDROOT
BRANCH   6  12
ATOM     12  C   UNL     1       1.195  -0.356  -0.097  1.00  0.00    +0.000 A 
ATOM     13  N   UNL     1       1.863   0.299   0.838  1.00  0.00    +0.000 NA
ATOM     14  C   UNL     1       3.194   0.132   0.552  1.00  0.00    +0.000 A 
ATOM     15  C   UNL     1       4.325   0.612   1.226  1.00  0.00    +0.000 A 
ATOM     16  C   UNL     1       5.592   0.297   0.717  1.00  0.00    +0.000 A 
ATOM     17  C   UNL     1       5.728  -0.477  -0.438  1.00  0.00    +0.000 A 
ATOM     18  C   UNL     1       4.608  -0.964  -1.124  1.00  0.00    +0.000 A 
ATOM     19  C   UNL     1       3.359  -0.636  -0.592  1.00  0.00    +0.000 A 
ATOM     20  N   UNL     1       2.079  -0.926  -0.986  1.00  0.00    +0.000 N 
ATOM     21  H   UNL     1       1.827  -1.454  -1.806  1.00  0.00    +0.000 HD
ENDBRANCH   6  12
TORSDOF 1
