REMARK  Name = 
REMARK  1 active torsions:
REMARK  status: ('A' for Active; 'I' for Inactive)
REMARK    1  A    between atoms: N_1  and  C_2
REMARK                            x       y       z     vdW  Elec       q    Type
REMARK                         _______ _______ _______ _____ _____    ______ ____
ROOT
ATOM      1  C   UNL     1       0.047   1.025  -0.480  1.00  0.00    +0.000 A 
ATOM      2  C   UNL     1      -1.229   0.492  -0.170  1.00  0.00    +0.000 A 
ATOM      3  C   UNL     1      -2.436   1.212  -0.334  1.00  0.00    +0.000 A 
ATOM      4  C   UNL     1      -3.669   0.637  -0.028  1.00  0.00    +0.000 A 
ATOM      5  C   UNL     1      -3.713  -0.667   0.443  1.00  0.00    +0.000 A 
ATOM      6  C   UNL     1      -2.525  -1.384   0.602  1.00  0.00    +0.000 A 
ATOM      7  C   UNL     1      -1.285  -0.830   0.306  1.00  0.00    +0.000 A 
ATOM      8  N   UNL     1      -0.191  -1.581   0.495  1.00  0.00    +0.000 NA
ATOM      9  C   UNL     1       1.018  -1.061   0.249  1.00  0.00    +0.000 A 
ATOM     10  C   UNL     1       2.120  -1.867   0.494  1.00  0.00    +0.000 A 
ATOM     11  C   UNL     1       3.417  -1.403   0.292  1.00  0.00    +0.000 A 
ATOM     12 CL   UNL     1       4.757  -2.433   0.611  1.00  0.00    +0.000 Cl
ATOM     13  C   UNL     1       3.634  -0.111  -0.162  1.00  0.00    +0.000 A 
ATOM     14  C   UNL     1       2.539   0.714  -0.418  1.00  0.00    +0.000 A 
ATOM     15  C   UNL     1       1.211   0.253  -0.226  1.00  0.00    +0.000 A 
ENDROOT
BRANCH   1  16
ATOM     16  N   UNL     1       0.140   2.400  -0.842  1.00  0.00    +0.000 N 
ATOM     17  H   UNL     1       0.081   2.984  -0.009  1.00  0.00    +0.000 HD
ATOM     18  H   UNL     1       0.978   2.623  -1.366  1.00  0.00    +0.000 HD
ENDBRANCH   1  16
TORSDOF 1
