REMARK  Name = 
REMARK  1 active torsions:
REMARK  status: ('A' for Active; 'I' for Inactive)
REMARK    1  A    between atoms: C_1  and  C_2
REMARK                            x       y       z     vdW  Elec       q    Type
REMARK                         _______ _______ _______ _____ _____    ______ ____
ROOT
ATOM      1  C   UNL     1       0.224   2.278  -1.031  1.00  0.00    +0.000 C 
ATOM      2  C   UNL     1       0.087   0.920  -0.382  1.00  0.00    +0.000 A 
ATOM      3  C   UNL     1      -1.195   0.313  -0.249  1.00  0.00    +0.000 A 
ATOM      4  C   UNL     1      -2.410   0.876  -0.717  1.00  0.00    +0.000 A 
ATOM      5  C   UNL     1      -3.634   0.229  -0.541  1.00  0.00    +0.000 A 
ATOM      6  C   UNL     1      -3.670  -0.996   0.103  1.00  0.00    +0.000 A 
ATOM      7  C   UNL     1      -2.481  -1.566   0.558  1.00  0.00    +0.000 A 
ATOM      8  C   UNL     1      -1.252  -0.943   0.391  1.00  0.00    +0.000 A 
ATOM      9  N   UNL     1      -0.169  -1.582   0.848  1.00  0.00    +0.000 NA
ATOM     10  C   UNL     1       1.040  -1.035   0.680  1.00  0.00    +0.000 A 
ATOM     11  C   UNL     1       2.136  -1.754   1.141  1.00  0.00    +0.000 A 
ATOM     12  C   UNL     1       3.442  -1.285   1.000  1.00  0.00    +0.000 A 
ATOM     13  C   UNL     1       3.664  -0.067   0.380  1.00  0.00    +0.000 A 
ATOM     14  C   UNL     1       2.578   0.674  -0.088  1.00  0.00    +0.000 A 
ATOM     15  C   UNL     1       1.244   0.214   0.059  1.00  0.00    +0.000 A 
ENDROOT
TORSDOF 0
