REMARK  Name = 
REMARK  2 active torsions:
REMARK  status: ('A' for Active; 'I' for Inactive)
REMARK    1  A    between atoms: N_1  and  C_2
REMARK    2  A    between atoms: C_5  and  C_6
REMARK                            x       y       z     vdW  Elec       q    Type
REMARK                         _______ _______ _______ _____ _____    ______ ____
ROOT
ATOM      1  C   UNL     1      -0.393   0.016   0.036  1.00  0.00    +0.000 A 
ATOM      2  C   UNL     1      -1.122   1.176  -0.352  1.00  0.00    +0.000 A 
ATOM      3  C   UNL     1      -0.531   2.350  -0.889  1.00  0.00    +0.000 A 
ATOM      4  C   UNL     1      -1.302   3.454  -1.250  1.00  0.00    +0.000 A 
ATOM      5  C   UNL     1      -2.677   3.408  -1.081  1.00  0.00    +0.000 A 
ATOM      6  C   UNL     1      -3.267   2.259  -0.553  1.00  0.00    +0.000 A 
ATOM      7  C   UNL     1      -2.519   1.147  -0.187  1.00  0.00    +0.000 A 
ATOM      8  N   UNL     1      -3.175   0.090   0.311  1.00  0.00    +0.000 NA
ATOM      9  C   UNL     1      -2.491  -1.002   0.676  1.00  0.00    +0.000 A 
ATOM     10  C   UNL     1      -3.210  -2.075   1.187  1.00  0.00    +0.000 A 
ATOM     11  C   UNL     1      -2.590  -3.256   1.596  1.00  0.00    +0.000 A 
ATOM     12  C   UNL     1      -1.213  -3.375   1.493  1.00  0.00    +0.000 A 
ATOM     13  C   UNL     1      -0.470  -2.311   0.983  1.00  0.00    +0.000 A 
ATOM     14  C   UNL     1      -1.092  -1.106   0.565  1.00  0.00    +0.000 A 
ENDROOT
BRANCH   1  18
ATOM     15  C   UNL     1       3.889  -0.128  -0.373  1.00  0.00    +0.000 A 
ATOM     16  C   UNL     1       3.302   0.382   0.786  1.00  0.00    +0.000 A 
ATOM     17  C   UNL     1       1.911   0.416   0.928  1.00  0.00    +0.000 A 
ATOM     18  C   UNL     1       1.076  -0.023  -0.108  1.00  0.00    +0.000 A 
ATOM     19  C   UNL     1       1.668  -0.480  -1.294  1.00  0.00    +0.000 A 
ATOM     20  C   UNL     1       3.060  -0.511  -1.429  1.00  0.00    +0.000 A 
BRANCH  15  21
ATOM     21  N   UNL     1       5.273  -0.047  -0.558  1.00  0.00    +0.000 N 
ATOM     22  H   UNL     1       5.635  -0.696  -1.249  1.00  0.00    +0.000 HD
ATOM     23  H   UNL     1       5.805  -0.069   0.307  1.00  0.00    +0.000 HD
ENDBRANCH  15  21
ENDBRANCH   1  18
TORSDOF 2
