REMARK  Name = 
REMARK  2 active torsions:
REMARK  status: ('A' for Active; 'I' for Inactive)
REMARK    1  A    between atoms: N_2  and  C_3
REMARK    2  A    between atoms: C_13  and  N_14
REMARK                            x       y       z     vdW  Elec       q    Type
REMARK                         _______ _______ _______ _____ _____    ______ ____
ROOT
ATOM      1 CL   UNL     1       0.683   0.000   0.000  1.00  0.00    +0.000 Cl
ATOM      2  H   UNL     1      -0.683   0.000   0.000  1.00  0.00    +0.000 HD
ENDROOT
TORSDOF 0
REMARK  Name = 
REMARK  2 active torsions:
REMARK  status: ('A' for Active; 'I' for Inactive)
REMARK    1  A    between atoms: N_2  and  C_3
REMARK    2  A    between atoms: C_13  and  N_14
REMARK                            x       y       z     vdW  Elec       q    Type
REMARK                         _______ _______ _______ _____ _____    ______ ____
ROOT
ATOM      1  C   UNL     1       0.598   1.102   0.112  1.00  0.00    +0.000 A 
ATOM      2  C   UNL     1       1.647   0.235  -0.072  1.00  0.00    +0.000 A 
ATOM      3  C   UNL     1       2.977   0.651  -0.057  1.00  0.00    +0.000 A 
ATOM      4  C   UNL     1       4.015  -0.256  -0.247  1.00  0.00    +0.000 A 
ATOM      5  C   UNL     1       3.755  -1.575  -0.452  1.00  0.00    +0.000 A 
ATOM      6  C   UNL     1       2.433  -1.994  -0.468  1.00  0.00    +0.000 A 
ATOM      7  C   UNL     1       1.392  -1.103  -0.280  1.00  0.00    +0.000 A 
ATOM      8  N   UNL     1       0.110  -1.518  -0.297  1.00  0.00    +0.000 NA
ATOM      9  C   UNL     1      -0.925  -0.682  -0.119  1.00  0.00    +0.000 A 
ATOM     10  C   UNL     1      -2.195  -1.218  -0.155  1.00  0.00    +0.000 A 
ATOM     11  C   UNL     1      -3.269  -0.356   0.028  1.00  0.00    +0.000 A 
ATOM     12  C   UNL     1      -3.046   0.980   0.238  1.00  0.00    +0.000 A 
ATOM     13  C   UNL     1      -1.771   1.522   0.275  1.00  0.00    +0.000 A 
ATOM     14  C   UNL     1      -0.719   0.657   0.092  1.00  0.00    +0.000 A 
ENDROOT
BRANCH   1  15
ATOM     15  N   UNL     1       0.873   2.477   0.325  1.00  0.00    +0.000 N 
ATOM     16  H   UNL     1       0.463   3.188  -0.316  1.00  0.00    +0.000 HD
ATOM     17  H   UNL     1       1.479   2.795   1.113  1.00  0.00    +0.000 HD
ENDBRANCH   1  15
BRANCH  11  18
ATOM     18  N   UNL     1      -4.580  -0.917  -0.011  1.00  0.00    +0.000 N 
ATOM     19  O   UNL     1      -5.576  -0.154   0.154  1.00  0.00    +0.000 OA
ATOM     20  O   UNL     1      -4.787  -2.275  -0.224  1.00  0.00    +0.000 OA
ENDBRANCH  11  18
TORSDOF 2
