REMARK  Name = 
REMARK  5 active torsions:
REMARK  status: ('A' for Active; 'I' for Inactive)
REMARK    1  A    between atoms: O_1  and  C_2
REMARK    2  A    between atoms: C_4  and  O_5
REMARK    3  A    between atoms: C_10  and  C_11
REMARK    4  A    between atoms: C_14  and  O_15
REMARK    5  A    between atoms: C_16  and  O_17
REMARK                            x       y       z     vdW  Elec       q    Type
REMARK                         _______ _______ _______ _____ _____    ______ ____
ROOT
ATOM      1  C   UNL     1       3.942   1.141   0.925  1.00  0.00    +0.000 A 
ATOM      2  C   UNL     1       4.598   0.295   0.044  1.00  0.00    +0.000 A 
ATOM      3  C   UNL     1       3.856  -0.553  -0.786  1.00  0.00    +0.000 A 
ATOM      4  C   UNL     1       2.448  -0.568  -0.745  1.00  0.00    +0.000 A 
ATOM      5  C   UNL     1       1.565  -1.435  -1.587  1.00  0.00    +0.000 A 
ATOM      6  S   UNL     1       2.108  -2.558  -2.727  1.00  0.00    +0.000 S 
ATOM      7  C   UNL     1       0.102  -1.271  -1.377  1.00  0.00    +0.000 A 
ATOM      8  C   UNL     1      -0.353  -0.402  -0.466  1.00  0.00    +0.000 A 
ATOM      9  O   UNL     1       0.457   0.398   0.309  1.00  0.00    +0.000 OA
ATOM     10  C   UNL     1       1.818   0.301   0.159  1.00  0.00    +0.000 A 
ATOM     11  C   UNL     1       2.558   1.150   0.989  1.00  0.00    +0.000 A 
ENDROOT
BRANCH   8  12
ATOM     12  C   UNL     1      -1.796  -0.206  -0.234  1.00  0.00    +0.000 A 
ATOM     13  C   UNL     1      -2.671  -1.300  -0.086  1.00  0.00    +0.000 A 
ATOM     14  C   UNL     1      -4.038  -1.105   0.144  1.00  0.00    +0.000 A 
ATOM     15  C   UNL     1      -4.530   0.190   0.233  1.00  0.00    +0.000 A 
ATOM     16  C   UNL     1      -3.673   1.277   0.097  1.00  0.00    +0.000 A 
ATOM     17  C   UNL     1      -2.316   1.093  -0.131  1.00  0.00    +0.000 A 
BRANCH  15  18
ATOM     18  O   UNL     1      -5.854   0.447   0.456  1.00  0.00    +0.000 OA
ATOM     19  H   UNL     1      -6.321  -0.403   0.535  1.00  0.00    +0.000 HD
ENDBRANCH  15  18
BRANCH  16  20
ATOM     20  O   UNL     1      -4.166   2.548   0.187  1.00  0.00    +0.000 OA
ATOM     21  H   UNL     1      -5.123   2.430   0.350  1.00  0.00    +0.000 HD
ENDBRANCH  16  20
ENDBRANCH   8  12
BRANCH   1  22
ATOM     22  O   UNL     1       4.626   1.982   1.750  1.00  0.00    +0.000 OA
ATOM     23  H   UNL     1       5.579   1.871   1.592  1.00  0.00    +0.000 HD
ENDBRANCH   1  22
BRANCH   3  24
ATOM     24  O   UNL     1       4.626  -1.333  -1.606  1.00  0.00    +0.000 OA
ATOM     25  H   UNL     1       4.042  -1.893  -2.155  1.00  0.00    +0.000 HD
ENDBRANCH   3  24
TORSDOF 5
