REMARK  Name = 
REMARK  1 active torsions:
REMARK  status: ('A' for Active; 'I' for Inactive)
REMARK    1  A    between atoms: C_4  and  C_5
REMARK                            x       y       z     vdW  Elec       q    Type
REMARK                         _______ _______ _______ _____ _____    ______ ____
ROOT
ATOM      1  C   UNL     1      -0.195  -0.084  -0.075  1.00  0.00    +0.000 A 
ATOM      2  N   UNL     1       0.509  -1.147  -0.427  1.00  0.00    +0.000 NA
ATOM      3  C   UNL     1       1.812  -0.731  -0.538  1.00  0.00    +0.000 A 
ATOM      4  C   UNL     1       2.962  -1.455  -0.883  1.00  0.00    +0.000 A 
ATOM      5  C   UNL     1       4.190  -0.783  -0.924  1.00  0.00    +0.000 A 
ATOM      6  C   UNL     1       4.271   0.580  -0.627  1.00  0.00    +0.000 A 
ATOM      7  C   UNL     1       3.133   1.318  -0.280  1.00  0.00    +0.000 A 
ATOM      8  C   UNL     1       1.923   0.622  -0.248  1.00  0.00    +0.000 A 
ATOM      9  N   UNL     1       0.640   1.006   0.042  1.00  0.00    +0.000 N 
ATOM     10  H   UNL     1       0.357   1.938   0.298  1.00  0.00    +0.000 HD
ENDROOT
BRANCH   1  14
ATOM     11  C   UNL     1      -4.430  -0.098   0.589  1.00  0.00    +0.000 A 
ATOM     12  C   UNL     1      -3.764  -1.263   0.219  1.00  0.00    +0.000 A 
ATOM     13  C   UNL     1      -2.383  -1.240   0.007  1.00  0.00    +0.000 A 
ATOM     14  C   UNL     1      -1.645  -0.055   0.160  1.00  0.00    +0.000 A 
ATOM     15  C   UNL     1      -2.332   1.110   0.533  1.00  0.00    +0.000 A 
ATOM     16  C   UNL     1      -3.716   1.087   0.746  1.00  0.00    +0.000 A 
ENDBRANCH   1  14
TORSDOF 1
