REMARK  Name = 
REMARK  2 active torsions:
REMARK  status: ('A' for Active; 'I' for Inactive)
REMARK    1  A    between atoms: N_1  and  C_2
REMARK    2  A    between atoms: C_6  and  N_7
REMARK                            x       y       z     vdW  Elec       q    Type
REMARK                         _______ _______ _______ _____ _____    ______ ____
ROOT
ATOM      1  C   UNL     1      -3.367  -0.204   0.036  1.00  0.00    +0.000 A 
ATOM      2  C   UNL     1      -3.117   1.162  -0.012  1.00  0.00    +0.000 A 
ATOM      3  C   UNL     1      -1.805   1.633  -0.060  1.00  0.00    +0.000 A 
ATOM      4  C   UNL     1      -0.711   0.741  -0.100  1.00  0.00    +0.000 A 
ATOM      5  C   UNL     1       0.640   1.164  -0.164  1.00  0.00    +0.000 A 
ATOM      6  C   UNL     1       1.680   0.198  -0.150  1.00  0.00    +0.000 A 
ATOM      7  C   UNL     1       3.066   0.504  -0.122  1.00  0.00    +0.000 A 
ATOM      8  C   UNL     1       4.032  -0.501  -0.129  1.00  0.00    +0.000 A 
ATOM      9  C   UNL     1       3.635  -1.829  -0.162  1.00  0.00    +0.000 A 
ATOM     10  C   UNL     1       2.275  -2.140  -0.180  1.00  0.00    +0.000 A 
ATOM     11  C   UNL     1       1.293  -1.157  -0.169  1.00  0.00    +0.000 A 
ATOM     12  N   UNL     1       0.014  -1.556  -0.160  1.00  0.00    +0.000 NA
ATOM     13  C   UNL     1      -0.965  -0.640  -0.112  1.00  0.00    +0.000 A 
ATOM     14  C   UNL     1      -2.284  -1.082  -0.068  1.00  0.00    +0.000 A 
ENDROOT
BRANCH   1  15
ATOM     15  N   UNL     1      -4.679  -0.685  -0.036  1.00  0.00    +0.000 N 
ATOM     16  H   UNL     1      -4.788  -1.637   0.301  1.00  0.00    +0.000 HD
ATOM     17  H   UNL     1      -5.374  -0.056   0.353  1.00  0.00    +0.000 HD
ENDBRANCH   1  15
BRANCH   5  18
ATOM     18  N   UNL     1       0.926   2.554  -0.022  1.00  0.00    +0.000 N 
ATOM     19  H   UNL     1       1.819   2.814  -0.425  1.00  0.00    +0.000 HD
ATOM     20  H   UNL     1       0.902   2.810   0.964  1.00  0.00    +0.000 HD
ENDBRANCH   5  18
TORSDOF 2
