REMARK  Name = 
REMARK  1 active torsions:
REMARK  status: ('A' for Active; 'I' for Inactive)
REMARK    1  A    between atoms: C_6  and  C_7
REMARK                            x       y       z     vdW  Elec       q    Type
REMARK                         _______ _______ _______ _____ _____    ______ ____
ROOT
ATOM      1  C   UNL     1      -4.379  -0.506  -1.092  1.00  0.00    +0.000 A 
ATOM      2  C   UNL     1      -4.442   0.772  -0.583  1.00  0.00    +0.000 A 
ATOM      3  C   UNL     1      -3.259   1.337  -0.114  1.00  0.00    +0.000 A 
ATOM      4  C   UNL     1      -2.067   0.643  -0.156  1.00  0.00    +0.000 A 
ATOM      5  N   UNL     1      -0.835   1.006   0.242  1.00  0.00    +0.000 N 
ATOM      6  C   UNL     1      -0.047  -0.048  -0.029  1.00  0.00    +0.000 A 
ATOM      7  N   UNL     1      -0.781  -1.044  -0.584  1.00  0.00    +0.000 NA
ATOM      8  C   UNL     1      -2.068  -0.633  -0.676  1.00  0.00    +0.000 A 
ATOM      9  C   UNL     1      -3.223  -1.226  -1.152  1.00  0.00    +0.000 A 
ATOM     10  H   UNL     1      -0.610   1.933   0.665  1.00  0.00    +0.000 HD
ENDROOT
BRANCH   6  11
ATOM     11  C   UNL     1       1.381  -0.053   0.258  1.00  0.00    +0.000 A 
ATOM     12  C   UNL     1       1.954   1.052   0.825  1.00  0.00    +0.000 A 
ATOM     13  C   UNL     1       3.309   0.996   1.075  1.00  0.00    +0.000 A 
ATOM     14  C   UNL     1       4.005  -0.152   0.748  1.00  0.00    +0.000 A 
ATOM     15  N   UNL     1       5.452  -0.169   1.034  1.00  0.00    +0.000 NA
ATOM     16 SE   UNL     1       6.196  -1.440   0.665  1.00  0.00    +0.000 Se
ATOM     17  N   UNL     1       4.139  -2.387  -0.137  1.00  0.00    +0.000 NA
ATOM     18  C   UNL     1       3.537  -1.182   0.233  1.00  0.00    +0.000 A 
ATOM     19  C   UNL     1       2.104  -1.160  -0.048  1.00  0.00    +0.000 A 
ENDBRANCH   6  11
TORSDOF 1
