REMARK  Name = 
REMARK  4 active torsions:
REMARK  status: ('A' for Active; 'I' for Inactive)
REMARK    1  A    between atoms: C_4  and  C_5
REMARK    2  A    between atoms: C_8  and  C_9
REMARK    3  A    between atoms: C_20  and  O_21
REMARK    4  A    between atoms: C_23  and  O_24
REMARK                            x       y       z     vdW  Elec       q    Type
REMARK                         _______ _______ _______ _____ _____    ______ ____
ROOT
ATOM      1  O   UNL     1      -4.116  -2.402   1.720  1.00  0.00    +0.000 OA
ATOM      2  C   UNL     1      -3.524  -1.498   1.142  1.00  0.00    +0.000 A 
ATOM      3  C   UNL     1      -2.058  -1.483   1.034  1.00  0.00    +0.000 A 
ATOM      4  C   UNL     1      -1.464  -0.471   0.385  1.00  0.00    +0.000 A 
ATOM      5  O   UNL     1      -2.142   0.592  -0.190  1.00  0.00    +0.000 OA
ATOM      6  C   UNL     1      -3.514   0.612  -0.117  1.00  0.00    +0.000 A 
ATOM      7  C   UNL     1      -4.163   1.690  -0.719  1.00  0.00    +0.000 A 
ATOM      8  C   UNL     1      -5.554   1.759  -0.671  1.00  0.00    +0.000 A 
ATOM      9  C   UNL     1      -6.300   0.771  -0.034  1.00  0.00    +0.000 A 
ATOM     10  C   UNL     1      -5.646  -0.302   0.565  1.00  0.00    +0.000 A 
ATOM     11  C   UNL     1      -4.251  -0.383   0.524  1.00  0.00    +0.000 A 
ENDROOT
BRANCH   4  12
ATOM     12  C   UNL     1       0.003  -0.395   0.251  1.00  0.00    +0.000 A 
ATOM     13  C   UNL     1       0.768  -1.514  -0.100  1.00  0.00    +0.000 A 
ATOM     14  C   UNL     1       2.159  -1.418  -0.231  1.00  0.00    +0.000 A 
ATOM     15  C   UNL     1       2.826  -0.202  -0.022  1.00  0.00    +0.000 A 
ATOM     16  C   UNL     1       2.053   0.918   0.320  1.00  0.00    +0.000 A 
ATOM     17  C   UNL     1       0.663   0.825   0.452  1.00  0.00    +0.000 A 
BRANCH  15  18
ATOM     18  C   UNL     1       4.288  -0.103  -0.160  1.00  0.00    +0.000 A 
ATOM     19  C   UNL     1       4.873   0.854  -1.007  1.00  0.00    +0.000 A 
ATOM     20  C   UNL     1       6.261   0.948  -1.139  1.00  0.00    +0.000 A 
ATOM     21  C   UNL     1       7.089   0.085  -0.425  1.00  0.00    +0.000 A 
ATOM     22  C   UNL     1       6.531  -0.870   0.420  1.00  0.00    +0.000 A 
ATOM     23  C   UNL     1       5.142  -0.963   0.550  1.00  0.00    +0.000 A 
ENDBRANCH  15  18
ENDBRANCH   4  12
BRANCH   8  24
ATOM     24  O   UNL     1      -6.232   2.793  -1.246  1.00  0.00    +0.000 OA
ATOM     25  H   UNL     1      -5.598   3.402  -1.660  1.00  0.00    +0.000 HD
ENDBRANCH   8  24
BRANCH  10  26
ATOM     26  O   UNL     1      -6.429  -1.244   1.177  1.00  0.00    +0.000 OA
ATOM     27  H   UNL     1      -5.841  -1.936   1.554  1.00  0.00    +0.000 HD
ENDBRANCH  10  26
TORSDOF 4
