REMARK  Name = 
REMARK  1 active torsions:
REMARK  status: ('A' for Active; 'I' for Inactive)
REMARK    1  A    between atoms: C_7  and  C_8
REMARK                            x       y       z     vdW  Elec       q    Type
REMARK                         _______ _______ _______ _____ _____    ______ ____
ROOT
ATOM      1  C   UNL     1       0.427   0.715   0.489  1.00  0.00    +0.000 A 
ATOM      2  C   UNL     1      -0.044   1.458   1.577  1.00  0.00    +0.000 A 
ATOM      3  C   UNL     1      -1.407   1.481   1.884  1.00  0.00    +0.000 A 
ATOM      4  C   UNL     1      -2.329   0.774   1.127  1.00  0.00    +0.000 A 
ATOM      5  N   UNL     1      -3.633   0.820   1.454  1.00  0.00    +0.000 NA
ATOM      6  C   UNL     1      -4.488   0.118   0.688  1.00  0.00    +0.000 A 
ATOM      7  C   UNL     1      -5.846   0.133   0.983  1.00  0.00    +0.000 A 
ATOM      8  C   UNL     1      -6.765  -0.581   0.213  1.00  0.00    +0.000 A 
ATOM      9  C   UNL     1      -6.318  -1.324  -0.872  1.00  0.00    +0.000 A 
ATOM     10  C   UNL     1      -4.956  -1.345  -1.175  1.00  0.00    +0.000 A 
ATOM     11  C   UNL     1      -4.033  -0.638  -0.415  1.00  0.00    +0.000 A 
ATOM     12  N   UNL     1      -2.728  -0.684  -0.740  1.00  0.00    +0.000 NA
ATOM     13  C   UNL     1      -1.873   0.019   0.025  1.00  0.00    +0.000 A 
ATOM     14  C   UNL     1      -0.515   0.004  -0.272  1.00  0.00    +0.000 A 
ENDROOT
BRANCH   1  21
ATOM     15  N   UNL     1       7.111  -1.668  -1.013  1.00  0.00    +0.000 N 
ATOM     16  C   UNL     1       6.017  -0.932  -0.775  1.00  0.00    +0.000 A 
ATOM     17  N   UNL     1       5.923   0.372  -0.777  1.00  0.00    +0.000 NA
ATOM     18  C   UNL     1       4.609   0.642  -0.481  1.00  0.00    +0.000 A 
ATOM     19  C   UNL     1       3.951   1.871  -0.352  1.00  0.00    +0.000 A 
ATOM     20  C   UNL     1       2.583   1.871  -0.036  1.00  0.00    +0.000 A 
ATOM     21  C   UNL     1       1.861   0.677   0.154  1.00  0.00    +0.000 A 
ATOM     22  C   UNL     1       2.528  -0.558   0.022  1.00  0.00    +0.000 A 
ATOM     23  C   UNL     1       3.890  -0.532  -0.294  1.00  0.00    +0.000 A 
ATOM     24  N   UNL     1       4.818  -1.523  -0.485  1.00  0.00    +0.000 N 
ATOM     25  H   UNL     1       7.891  -1.135  -1.391  1.00  0.00    +0.000 HD
ATOM     26  H   UNL     1       7.023  -2.573  -1.461  1.00  0.00    +0.000 HD
ATOM     27  H   UNL     1       4.662  -2.515  -0.401  1.00  0.00    +0.000 HD
ENDBRANCH   1  21
TORSDOF 1
