REMARK  Name = 
REMARK  3 active torsions:
REMARK  status: ('A' for Active; 'I' for Inactive)
REMARK    1  A    between atoms: C_2  and  C_3
REMARK    2  A    between atoms: C_8  and  C_9
REMARK    3  A    between atoms: C_14  and  C_15
REMARK                            x       y       z     vdW  Elec       q    Type
REMARK                         _______ _______ _______ _____ _____    ______ ____
ROOT
ATOM      1  C   UNL     1      -1.063  -0.821   0.260  1.00  0.00    +0.000 A 
ATOM      2  C   UNL     1      -0.564  -2.117   0.488  1.00  0.00    +0.000 A 
ATOM      3  C   UNL     1       0.810  -2.403   0.463  1.00  0.00    +0.000 A 
ATOM      4  C   UNL     1       1.666  -1.335   0.200  1.00  0.00    +0.000 A 
ATOM      5  N   UNL     1       3.030  -1.242   0.101  1.00  0.00    +0.000 N 
ATOM      6  C   UNL     1       3.373   0.063  -0.178  1.00  0.00    +0.000 A 
ATOM      7  N   UNL     1       2.278   0.801  -0.259  1.00  0.00    +0.000 NA
ATOM      8  C   UNL     1       1.221  -0.043  -0.029  1.00  0.00    +0.000 A 
ATOM      9  C   UNL     1      -0.155   0.224  -0.001  1.00  0.00    +0.000 A 
ATOM     10  H   UNL     1       3.676  -2.006   0.214  1.00  0.00    +0.000 HD
ENDROOT
BRANCH   1  16
ATOM     11  C   UNL     1      -6.742   1.050   0.227  1.00  0.00    +0.000 A 
ATOM     12  C   UNL     1      -7.036  -0.293   0.510  1.00  0.00    +0.000 A 
ATOM     13  C   UNL     1      -6.022  -1.251   0.639  1.00  0.00    +0.000 A 
ATOM     14  C   UNL     1      -4.714  -0.796   0.472  1.00  0.00    +0.000 A 
ATOM     15  N   UNL     1      -3.499  -1.431   0.525  1.00  0.00    +0.000 N 
ATOM     16  C   UNL     1      -2.500  -0.512   0.284  1.00  0.00    +0.000 A 
ATOM     17  N   UNL     1      -3.036   0.680   0.081  1.00  0.00    +0.000 NA
ATOM     18  C   UNL     1      -4.392   0.524   0.192  1.00  0.00    +0.000 A 
ATOM     19  C   UNL     1      -5.415   1.473   0.065  1.00  0.00    +0.000 A 
ATOM     20  H   UNL     1      -3.363  -2.412   0.711  1.00  0.00    +0.000 HD
BRANCH  11  22
ATOM     21  N   UNL     1      -8.681   2.759   0.004  1.00  0.00    +0.000 NA
ATOM     22  C   UNL     1      -7.809   2.000   0.103  1.00  0.00    +0.000 C 
ENDBRANCH  11  22
ENDBRANCH   1  16
BRANCH   6  23
ATOM     23  C   UNL     1       4.748   0.547  -0.355  1.00  0.00    +0.000 A 
ATOM     24  C   UNL     1       5.870  -0.291  -0.255  1.00  0.00    +0.000 A 
ATOM     25  C   UNL     1       7.161   0.218  -0.432  1.00  0.00    +0.000 A 
ATOM     26  C   UNL     1       7.350   1.570  -0.712  1.00  0.00    +0.000 A 
ATOM     27  C   UNL     1       6.249   2.415  -0.814  1.00  0.00    +0.000 A 
ATOM     28  C   UNL     1       4.960   1.906  -0.637  1.00  0.00    +0.000 A 
ENDBRANCH   6  23
TORSDOF 3
