REMARK  Name = 
REMARK  2 active torsions:
REMARK  status: ('A' for Active; 'I' for Inactive)
REMARK    1  A    between atoms: N_2  and  C_3
REMARK    2  A    between atoms: C_7  and  N_8
REMARK                            x       y       z     vdW  Elec       q    Type
REMARK                         _______ _______ _______ _____ _____    ______ ____
ROOT
ATOM      1 CL   UNL     1       0.683   0.000   0.000  1.00  0.00    +0.000 Cl
ATOM      2  H   UNL     1      -0.683   0.000   0.000  1.00  0.00    +0.000 HD
ENDROOT
TORSDOF 0
REMARK  Name = 
REMARK  2 active torsions:
REMARK  status: ('A' for Active; 'I' for Inactive)
REMARK    1  A    between atoms: N_2  and  C_3
REMARK    2  A    between atoms: C_7  and  N_8
REMARK                            x       y       z     vdW  Elec       q    Type
REMARK                         _______ _______ _______ _____ _____    ______ ____
ROOT
ATOM      1  C   UNL     1      -3.280  -0.170   0.027  1.00  0.00    +0.000 A 
ATOM      2  C   UNL     1      -2.957   1.143  -0.227  1.00  0.00    +0.000 A 
ATOM      3  C   UNL     1      -1.649   1.586  -0.329  1.00  0.00    +0.000 A 
ATOM      4  C   UNL     1      -0.641   0.687  -0.170  1.00  0.00    +0.000 A 
ATOM      5  C   UNL     1       0.660   1.117  -0.269  1.00  0.00    +0.000 A 
ATOM      6  C   UNL     1       1.642   0.135  -0.094  1.00  0.00    +0.000 A 
ATOM      7  C   UNL     1       2.992   0.460  -0.174  1.00  0.00    +0.000 A 
ATOM      8  C   UNL     1       3.954  -0.515  -0.000  1.00  0.00    +0.000 A 
ATOM      9  C   UNL     1       3.602  -1.825   0.254  1.00  0.00    +0.000 A 
ATOM     10  C   UNL     1       2.264  -2.147   0.332  1.00  0.00    +0.000 A 
ATOM     11  C   UNL     1       1.294  -1.187   0.162  1.00  0.00    +0.000 A 
ATOM     12  N   UNL     1       0.002  -1.565   0.251  1.00  0.00    +0.000 NA
ATOM     13  C   UNL     1      -0.972  -0.628   0.085  1.00  0.00    +0.000 A 
ATOM     14  C   UNL     1      -2.268  -1.081   0.187  1.00  0.00    +0.000 A 
ENDROOT
BRANCH   1  15
ATOM     15  N   UNL     1      -4.615  -0.646   0.135  1.00  0.00    +0.000 N 
ATOM     16  H   UNL     1      -4.976  -1.369  -0.557  1.00  0.00    +0.000 HD
ATOM     17  H   UNL     1      -5.283  -0.315   0.881  1.00  0.00    +0.000 HD
ENDBRANCH   1  15
BRANCH   5  18
ATOM     18  N   UNL     1       1.015   2.466  -0.530  1.00  0.00    +0.000 N 
ATOM     19  H   UNL     1       1.230   2.845  -1.463  1.00  0.00    +0.000 HD
ATOM     20  H   UNL     1       1.050   3.100   0.313  1.00  0.00    +0.000 HD
ENDBRANCH   5  18
TORSDOF 2
