REMARK  Name = 
REMARK  2 active torsions:
REMARK  status: ('A' for Active; 'I' for Inactive)
REMARK    1  A    between atoms: C_1  and  C_2
REMARK    2  A    between atoms: C_5  and  C_6
REMARK                            x       y       z     vdW  Elec       q    Type
REMARK                         _______ _______ _______ _____ _____    ______ ____
ROOT
ATOM      1  C   UNL     1      -0.509   0.122   0.011  1.00  0.00    +0.000 A 
ATOM      2  N   UNL     1      -1.427   0.818   0.661  1.00  0.00    +0.000 NA
ATOM      3  C   UNL     1      -2.643   0.322   0.265  1.00  0.00    +0.000 A 
ATOM      4  C   UNL     1      -3.937   0.698   0.650  1.00  0.00    +0.000 A 
ATOM      5  C   UNL     1      -5.028   0.024   0.087  1.00  0.00    +0.000 A 
ATOM      6  C   UNL     1      -4.833  -1.004  -0.840  1.00  0.00    +0.000 A 
ATOM      7  C   UNL     1      -3.547  -1.393  -1.236  1.00  0.00    +0.000 A 
ATOM      8  C   UNL     1      -2.480  -0.703  -0.657  1.00  0.00    +0.000 A 
ATOM      9  N   UNL     1      -1.121  -0.807  -0.802  1.00  0.00    +0.000 N 
ATOM     10  H   UNL     1      -0.650  -1.452  -1.415  1.00  0.00    +0.000 HD
ENDROOT
BRANCH   1  15
ATOM     11  C   UNL     1       5.204   0.964   0.529  1.00  0.00    +0.000 C 
ATOM     12  C   UNL     1       3.729   0.751   0.365  1.00  0.00    +0.000 A 
ATOM     13  C   UNL     1       2.816   1.609   0.985  1.00  0.00    +0.000 A 
ATOM     14  C   UNL     1       1.441   1.390   0.857  1.00  0.00    +0.000 A 
ATOM     15  C   UNL     1       0.944   0.307   0.117  1.00  0.00    +0.000 A 
ATOM     16  C   UNL     1       1.866  -0.560  -0.486  1.00  0.00    +0.000 A 
ATOM     17  C   UNL     1       3.244  -0.342  -0.359  1.00  0.00    +0.000 A 
ENDBRANCH   1  15
TORSDOF 1
