REMARK  Name = 
REMARK  7 active torsions:
REMARK  status: ('A' for Active; 'I' for Inactive)
REMARK    1  A    between atoms: C_1  and  O_2
REMARK    2  A    between atoms: O_2  and  C_3
REMARK    3  A    between atoms: C_5  and  O_6
REMARK    4  A    between atoms: C_10  and  O_11
REMARK    5  A    between atoms: C_12  and  C_13
REMARK    6  A    between atoms: C_16  and  O_17
REMARK    7  A    between atoms: C_18  and  O_19
REMARK                            x       y       z     vdW  Elec       q    Type
REMARK                         _______ _______ _______ _____ _____    ______ ____
ROOT
ATOM      1  C   UNL     1       3.355   0.659   1.298  1.00  0.00    +0.000 A 
ATOM      2  C   UNL     1       3.944  -0.382   0.577  1.00  0.00    +0.000 A 
ATOM      3  C   UNL     1       3.153  -1.210  -0.221  1.00  0.00    +0.000 A 
ATOM      4  C   UNL     1       1.774  -1.003  -0.302  1.00  0.00    +0.000 A 
ATOM      5  C   UNL     1       0.913  -1.849  -1.129  1.00  0.00    +0.000 A 
ATOM      6  O   UNL     1       1.363  -2.778  -1.797  1.00  0.00    +0.000 OA
ATOM      7  C   UNL     1      -0.537  -1.548  -1.139  1.00  0.00    +0.000 A 
ATOM      8  C   UNL     1      -0.983  -0.518  -0.395  1.00  0.00    +0.000 A 
ATOM      9  O   UNL     1      -0.161   0.294   0.377  1.00  0.00    +0.000 OA
ATOM     10  C   UNL     1       1.185   0.032   0.413  1.00  0.00    +0.000 A 
ATOM     11  C   UNL     1       1.973   0.861   1.212  1.00  0.00    +0.000 A 
ENDROOT
BRANCH   8  12
ATOM     12  C   UNL     1      -2.406  -0.119  -0.335  1.00  0.00    +0.000 A 
ATOM     13  C   UNL     1      -3.425  -1.061  -0.104  1.00  0.00    +0.000 A 
ATOM     14  C   UNL     1      -4.763  -0.666  -0.023  1.00  0.00    +0.000 A 
ATOM     15  C   UNL     1      -5.083   0.674  -0.165  1.00  0.00    +0.000 A 
ATOM     16  C   UNL     1      -4.088   1.622  -0.386  1.00  0.00    +0.000 A 
ATOM     17  C   UNL     1      -2.753   1.238  -0.468  1.00  0.00    +0.000 A 
BRANCH  15  18
ATOM     18  O   UNL     1      -6.389   1.061  -0.085  1.00  0.00    +0.000 OA
ATOM     19  H   UNL     1      -6.365   2.030  -0.215  1.00  0.00    +0.000 HD
ENDBRANCH  15  18
BRANCH  16  20
ATOM     20  O   UNL     1      -4.474   2.928  -0.514  1.00  0.00    +0.000 OA
ATOM     21  H   UNL     1      -3.678   3.467  -0.664  1.00  0.00    +0.000 HD
ENDBRANCH  16  20
ENDBRANCH   8  12
BRANCH   1  23
ATOM     22  C   UNL     1       5.414   1.370   2.251  1.00  0.00    +0.000 C 
ATOM     23  O   UNL     1       4.008   1.541   2.114  1.00  0.00    +0.000 OA
ENDBRANCH   1  23
BRANCH   3  24
ATOM     24  O   UNL     1       3.798  -2.208  -0.900  1.00  0.00    +0.000 OA
ATOM     25  H   UNL     1       3.134  -2.713  -1.420  1.00  0.00    +0.000 HD
ENDBRANCH   3  24
BRANCH   7  26
ATOM     26  O   UNL     1      -1.341  -2.342  -1.934  1.00  0.00    +0.000 OA
ATOM     27  H   UNL     1      -0.735  -2.982  -2.362  1.00  0.00    +0.000 HD
ENDBRANCH   7  26
TORSDOF 6
