REMARK  Name = 
REMARK  4 active torsions:
REMARK  status: ('A' for Active; 'I' for Inactive)
REMARK    1  A    between atoms: C_4  and  C_5
REMARK    2  A    between atoms: C_9  and  O_10
REMARK    3  A    between atoms: C_15  and  O_16
REMARK    4  A    between atoms: C_18  and  O_19
REMARK                            x       y       z     vdW  Elec       q    Type
REMARK                         _______ _______ _______ _____ _____    ______ ____
ROOT
ATOM      1  O   UNL     1       2.043  -2.591  -1.683  1.00  0.00    +0.000 OA
ATOM      2  C   UNL     1       1.535  -1.648  -1.091  1.00  0.00    +0.000 A 
ATOM      3  C   UNL     1       0.066  -1.580  -0.995  1.00  0.00    +0.000 A 
ATOM      4  C   UNL     1      -0.512  -0.566  -0.339  1.00  0.00    +0.000 A 
ATOM      5  O   UNL     1       0.186   0.466   0.260  1.00  0.00    +0.000 OA
ATOM      6  C   UNL     1       1.558   0.453   0.198  1.00  0.00    +0.000 A 
ATOM      7  C   UNL     1       2.204   1.521   0.827  1.00  0.00    +0.000 A 
ATOM      8  C   UNL     1       3.591   1.582   0.808  1.00  0.00    +0.000 A 
ATOM      9  C   UNL     1       4.340   0.596   0.175  1.00  0.00    +0.000 A 
ATOM     10  C   UNL     1       3.691  -0.470  -0.453  1.00  0.00    +0.000 A 
ATOM     11  C   UNL     1       2.292  -0.550  -0.446  1.00  0.00    +0.000 A 
ENDROOT
BRANCH   4  12
ATOM     12  C   UNL     1      -1.979  -0.452  -0.221  1.00  0.00    +0.000 A 
ATOM     13  C   UNL     1      -2.782  -1.565   0.079  1.00  0.00    +0.000 A 
ATOM     14  C   UNL     1      -4.169  -1.435   0.198  1.00  0.00    +0.000 A 
ATOM     15  C   UNL     1      -4.773  -0.191   0.026  1.00  0.00    +0.000 A 
ATOM     16  C   UNL     1      -3.982   0.915  -0.261  1.00  0.00    +0.000 A 
ATOM     17  C   UNL     1      -2.600   0.795  -0.381  1.00  0.00    +0.000 A 
BRANCH  16  18
ATOM     18  O   UNL     1      -4.528   2.152  -0.434  1.00  0.00    +0.000 OA
ATOM     19  H   UNL     1      -5.492   2.084  -0.334  1.00  0.00    +0.000 HD
ENDBRANCH  16  18
ENDBRANCH   4  12
BRANCH   8  20
ATOM     20  O   UNL     1       4.267   2.603   1.407  1.00  0.00    +0.000 OA
ATOM     21  H   UNL     1       3.628   3.217   1.806  1.00  0.00    +0.000 HD
ENDBRANCH   8  20
BRANCH  10  22
ATOM     22  O   UNL     1       4.446  -1.427  -1.069  1.00  0.00    +0.000 OA
ATOM     23  H   UNL     1       5.390  -1.217  -0.984  1.00  0.00    +0.000 HD
ENDBRANCH  10  22
TORSDOF 4
