REMARK  Name = 
REMARK  3 active torsions:
REMARK  status: ('A' for Active; 'I' for Inactive)
REMARK    1  A    between atoms: C_1  and  C_2
REMARK    2  A    between atoms: C_5  and  C_6
REMARK    3  A    between atoms: C_14  and  C_15
REMARK                            x       y       z     vdW  Elec       q    Type
REMARK                         _______ _______ _______ _____ _____    ______ ____
ROOT
ATOM      1  C   UNL     1      -5.187   0.662   0.651  1.00  0.00    +0.000 C 
ATOM      2  O   UNL     1      -5.082   1.586   1.447  1.00  0.00    +0.000 OA
ATOM      3  N   UNL     1      -4.177   0.005  -0.026  1.00  0.00    +0.000 N 
ATOM      4  C   UNL     1      -2.862   0.393   0.067  1.00  0.00    +0.000 A 
ATOM      5  N   UNL     1      -2.347   1.425   0.691  1.00  0.00    +0.000 NA
ATOM      6  C   UNL     1      -0.995   1.367   0.474  1.00  0.00    +0.000 A 
ATOM      7  C   UNL     1       0.024   2.217   0.918  1.00  0.00    +0.000 A 
ATOM      8  C   UNL     1       1.348   1.929   0.550  1.00  0.00    +0.000 A 
ATOM      9  C   UNL     1       1.672   0.817  -0.251  1.00  0.00    +0.000 A 
ATOM     10  C   UNL     1       0.641  -0.035  -0.697  1.00  0.00    +0.000 A 
ATOM     11  C   UNL     1      -0.668   0.273  -0.313  1.00  0.00    +0.000 A 
ATOM     12  N   UNL     1      -1.875  -0.330  -0.557  1.00  0.00    +0.000 N 
ATOM     13  H   UNL     1      -4.401  -0.827  -0.549  1.00  0.00    +0.000 HD
ATOM     14  H   UNL     1      -2.012  -1.168  -1.099  1.00  0.00    +0.000 HD
ENDROOT
BRANCH   9  15
ATOM     15  C   UNL     1       3.071   0.544  -0.618  1.00  0.00    +0.000 A 
ATOM     16  C   UNL     1       3.457   0.416  -1.956  1.00  0.00    +0.000 A 
ATOM     17  C   UNL     1       4.789   0.157  -2.288  1.00  0.00    +0.000 A 
ATOM     18  C   UNL     1       5.763   0.019  -1.310  1.00  0.00    +0.000 A 
ATOM     19  N   UNL     1       7.035  -0.231  -1.670  1.00  0.00    +0.000 NA
ATOM     20  C   UNL     1       7.943  -0.355  -0.685  1.00  0.00    +0.000 A 
ATOM     21  C   UNL     1       9.271  -0.612  -1.003  1.00  0.00    +0.000 A 
ATOM     22  C   UNL     1      10.244  -0.747  -0.011  1.00  0.00    +0.000 A 
ATOM     23  C   UNL     1       9.881  -0.624   1.324  1.00  0.00    +0.000 A 
ATOM     24  C   UNL     1       8.550  -0.365   1.653  1.00  0.00    +0.000 A 
ATOM     25  C   UNL     1       7.574  -0.229   0.672  1.00  0.00    +0.000 A 
ATOM     26  N   UNL     1       6.301   0.020   1.030  1.00  0.00    +0.000 NA
ATOM     27  C   UNL     1       5.394   0.146   0.045  1.00  0.00    +0.000 A 
ATOM     28  C   UNL     1       4.065   0.405   0.365  1.00  0.00    +0.000 A 
ENDBRANCH   9  15
BRANCH   1  33
ATOM     29  C   UNL     1     -10.506  -1.463  -0.244  1.00  0.00    +0.000 C 
ATOM     30  C   UNL     1      -9.136  -0.891  -0.025  1.00  0.00    +0.000 A 
ATOM     31  C   UNL     1      -8.228  -0.809  -1.089  1.00  0.00    +0.000 A 
ATOM     32  C   UNL     1      -6.942  -0.299  -0.887  1.00  0.00    +0.000 A 
ATOM     33  C   UNL     1      -6.549   0.118   0.390  1.00  0.00    +0.000 A 
ATOM     34  C   UNL     1      -7.454   0.044   1.454  1.00  0.00    +0.000 A 
ATOM     35  C   UNL     1      -8.737  -0.469   1.249  1.00  0.00    +0.000 A 
ENDBRANCH   1  33
TORSDOF 2
