REMARK  Name = 
REMARK  4 active torsions:
REMARK  status: ('A' for Active; 'I' for Inactive)
REMARK    1  A    between atoms: C_4  and  C_5
REMARK    2  A    between atoms: C_10  and  C_11
REMARK    3  A    between atoms: C_16  and  C_17
REMARK    4  A    between atoms: C_22  and  C_23
REMARK                            x       y       z     vdW  Elec       q    Type
REMARK                         _______ _______ _______ _____ _____    ______ ____
ROOT
ATOM      1  C   UNL     1       2.216   1.161  -0.737  1.00  0.00    +0.000 A 
ATOM      2  C   UNL     1       1.708   2.224  -1.504  1.00  0.00    +0.000 A 
ATOM      3  C   UNL     1       0.331   2.415  -1.694  1.00  0.00    +0.000 A 
ATOM      4  C   UNL     1      -0.517   1.494  -1.080  1.00  0.00    +0.000 A 
ATOM      5  N   UNL     1      -1.882   1.371  -1.045  1.00  0.00    +0.000 N 
ATOM      6  C   UNL     1      -2.214   0.272  -0.283  1.00  0.00    +0.000 A 
ATOM      7  N   UNL     1      -1.113  -0.304   0.170  1.00  0.00    +0.000 NA
ATOM      8  C   UNL     1      -0.061   0.435  -0.309  1.00  0.00    +0.000 A 
ATOM      9  C   UNL     1       1.318   0.263  -0.129  1.00  0.00    +0.000 A 
ATOM     10  H   UNL     1      -2.535   1.988  -1.501  1.00  0.00    +0.000 HD
ENDROOT
BRANCH   1  16
ATOM     11  C   UNL     1       7.949  -0.086   0.528  1.00  0.00    +0.000 A 
ATOM     12  C   UNL     1       8.198   0.786  -0.550  1.00  0.00    +0.000 A 
ATOM     13  C   UNL     1       7.167   1.411  -1.266  1.00  0.00    +0.000 A 
ATOM     14  C   UNL     1       5.866   1.127  -0.856  1.00  0.00    +0.000 A 
ATOM     15  N   UNL     1       4.640   1.540  -1.309  1.00  0.00    +0.000 N 
ATOM     16  C   UNL     1       3.657   0.957  -0.539  1.00  0.00    +0.000 A 
ATOM     17  N   UNL     1       4.211   0.178   0.374  1.00  0.00    +0.000 NA
ATOM     18  C   UNL     1       5.568   0.276   0.197  1.00  0.00    +0.000 A 
ATOM     19  C   UNL     1       6.613  -0.340   0.901  1.00  0.00    +0.000 A 
ATOM     20  H   UNL     1       4.485   2.155  -2.092  1.00  0.00    +0.000 HD
BRANCH  11  24
ATOM     21  C   UNL     1      11.193  -1.949   2.635  1.00  0.00    +0.000 A 
ATOM     22  C   UNL     1      10.165  -2.726   2.108  1.00  0.00    +0.000 A 
ATOM     23  C   UNL     1       9.109  -2.118   1.423  1.00  0.00    +0.000 A 
ATOM     24  C   UNL     1       9.062  -0.725   1.252  1.00  0.00    +0.000 A 
ATOM     25  C   UNL     1      10.109   0.040   1.793  1.00  0.00    +0.000 A 
ATOM     26  C   UNL     1      11.165  -0.566   2.479  1.00  0.00    +0.000 A 
ENDBRANCH  11  24
ENDBRANCH   1  16
BRANCH   6  27
ATOM     27  C   UNL     1      -3.587  -0.177  -0.019  1.00  0.00    +0.000 A 
ATOM     28  C   UNL     1      -3.788  -1.283   0.829  1.00  0.00    +0.000 A 
ATOM     29  C   UNL     1      -5.064  -1.776   1.135  1.00  0.00    +0.000 A 
ATOM     30  C   UNL     1      -6.139  -1.111   0.551  1.00  0.00    +0.000 A 
ATOM     31  N   UNL     1      -7.494  -1.303   0.616  1.00  0.00    +0.000 N 
ATOM     32  C   UNL     1      -8.120  -0.353  -0.162  1.00  0.00    +0.000 A 
ATOM     33  N   UNL     1      -7.213   0.432  -0.722  1.00  0.00    +0.000 NA
ATOM     34  C   UNL     1      -5.992  -0.021  -0.291  1.00  0.00    +0.000 A 
ATOM     35  C   UNL     1      -4.706   0.459  -0.586  1.00  0.00    +0.000 A 
ATOM     36  H   UNL     1      -7.954  -2.027   1.145  1.00  0.00    +0.000 HD
BRANCH  32  37
ATOM     37  C   UNL     1      -9.574  -0.245  -0.339  1.00  0.00    +0.000 A 
ATOM     38  C   UNL     1     -10.486  -1.070   0.338  1.00  0.00    +0.000 A 
ATOM     39  C   UNL     1     -11.864  -0.931   0.135  1.00  0.00    +0.000 A 
ATOM     40  C   UNL     1     -12.349   0.034  -0.744  1.00  0.00    +0.000 A 
ATOM     41  C   UNL     1     -11.459   0.862  -1.422  1.00  0.00    +0.000 A 
ATOM     42  C   UNL     1     -10.084   0.722  -1.220  1.00  0.00    +0.000 A 
ENDBRANCH  32  37
ENDBRANCH   6  27
TORSDOF 4
