REMARK  Name = 
REMARK  2 active torsions:
REMARK  status: ('A' for Active; 'I' for Inactive)
REMARK    1  A    between atoms: C_4  and  C_5
REMARK    2  A    between atoms: C_8  and  C_9
REMARK                            x       y       z     vdW  Elec       q    Type
REMARK                         _______ _______ _______ _____ _____    ______ ____
ROOT
ATOM      1  C   UNL     1       2.251   0.176   0.319  1.00  0.00    +0.000 A 
ATOM      2  C   UNL     1       1.673  -0.291  -0.871  1.00  0.00    +0.000 A 
ATOM      3  C   UNL     1       0.282  -0.402  -1.011  1.00  0.00    +0.000 A 
ATOM      4  C   UNL     1      -0.574  -0.047   0.040  1.00  0.00    +0.000 A 
ATOM      5  C   UNL     1       0.002   0.417   1.230  1.00  0.00    +0.000 A 
ATOM      6  C   UNL     1       1.391   0.529   1.368  1.00  0.00    +0.000 A 
ENDROOT
BRANCH   4   7
ATOM      7  C   UNL     1      -2.037  -0.142  -0.055  1.00  0.00    +0.000 A 
ATOM      8  N   UNL     1      -2.892   0.123   0.918  1.00  0.00    +0.000 NA
ATOM      9  C   UNL     1      -4.145  -0.093   0.402  1.00  0.00    +0.000 A 
ATOM     10  C   UNL     1      -5.402   0.040   1.009  1.00  0.00    +0.000 A 
ATOM     11  C   UNL     1      -6.546  -0.245   0.251  1.00  0.00    +0.000 A 
ATOM     12  C   UNL     1      -6.438  -0.652  -1.081  1.00  0.00    +0.000 A 
ATOM     13  C   UNL     1      -5.191  -0.789  -1.702  1.00  0.00    +0.000 A 
ATOM     14  C   UNL     1      -4.070  -0.499  -0.922  1.00  0.00    +0.000 A 
ATOM     15  N   UNL     1      -2.725  -0.521  -1.187  1.00  0.00    +0.000 N 
ATOM     16  H   UNL     1      -2.312  -0.770  -2.071  1.00  0.00    +0.000 HD
ENDBRANCH   4   7
BRANCH   1  20
ATOM     17  C   UNL     1       6.509   0.520   0.729  1.00  0.00    +0.000 A 
ATOM     18  C   UNL     1       5.692   1.618   0.986  1.00  0.00    +0.000 A 
ATOM     19  C   UNL     1       4.306   1.504   0.853  1.00  0.00    +0.000 A 
ATOM     20  C   UNL     1       3.711   0.293   0.460  1.00  0.00    +0.000 A 
ATOM     21  C   UNL     1       4.554  -0.802   0.206  1.00  0.00    +0.000 A 
ATOM     22  C   UNL     1       5.941  -0.690   0.339  1.00  0.00    +0.000 A 
ENDBRANCH   1  20
TORSDOF 2
