REMARK  Name = 
REMARK  4 active torsions:
REMARK  status: ('A' for Active; 'I' for Inactive)
REMARK    1  A    between atoms: C_1  and  C_2
REMARK    2  A    between atoms: C_7  and  C_8
REMARK    3  A    between atoms: C_11  and  C_12
REMARK    4  A    between atoms: C_15  and  C_16
REMARK                            x       y       z     vdW  Elec       q    Type
REMARK                         _______ _______ _______ _____ _____    ______ ____
ROOT
ATOM      1  C   UNL     1      -2.112   0.063  -0.273  1.00  0.00    +0.000 A 
ATOM      2  C   UNL     1      -1.487   0.824   0.724  1.00  0.00    +0.000 A 
ATOM      3  C   UNL     1      -0.093   0.845   0.853  1.00  0.00    +0.000 A 
ATOM      4  C   UNL     1       0.723   0.102  -0.011  1.00  0.00    +0.000 A 
ATOM      5  C   UNL     1       0.095  -0.661  -1.007  1.00  0.00    +0.000 A 
ATOM      6  C   UNL     1      -1.301  -0.681  -1.139  1.00  0.00    +0.000 A 
ENDROOT
BRANCH   1  13
ATOM      7  C   UNL     1      -9.418   0.948   0.380  1.00  0.00    +0.000 C 
ATOM      8  C   UNL     1      -8.085   0.512  -0.157  1.00  0.00    +0.000 A 
ATOM      9  C   UNL     1      -8.016  -0.341  -1.269  1.00  0.00    +0.000 A 
ATOM     10  C   UNL     1      -6.791  -0.792  -1.778  1.00  0.00    +0.000 A 
ATOM     11  C   UNL     1      -5.642  -0.359  -1.116  1.00  0.00    +0.000 A 
ATOM     12  N   UNL     1      -4.308  -0.593  -1.325  1.00  0.00    +0.000 N 
ATOM     13  C   UNL     1      -3.578   0.077  -0.368  1.00  0.00    +0.000 A 
ATOM     14  N   UNL     1      -4.397   0.730   0.440  1.00  0.00    +0.000 NA
ATOM     15  C   UNL     1      -5.669   0.472  -0.006  1.00  0.00    +0.000 A 
ATOM     16  C   UNL     1      -6.904   0.914   0.491  1.00  0.00    +0.000 A 
ATOM     17  H   UNL     1      -3.928  -1.163  -2.064  1.00  0.00    +0.000 HD
ENDBRANCH   1  13
BRANCH   4  18
ATOM     18  C   UNL     1       2.189   0.123   0.121  1.00  0.00    +0.000 A 
ATOM     19  C   UNL     1       2.897   1.334   0.133  1.00  0.00    +0.000 A 
ATOM     20  C   UNL     1       4.292   1.354   0.257  1.00  0.00    +0.000 A 
ATOM     21  C   UNL     1       5.027   0.166   0.374  1.00  0.00    +0.000 A 
ATOM     22  C   UNL     1       4.318  -1.045   0.363  1.00  0.00    +0.000 A 
ATOM     23  C   UNL     1       2.923  -1.065   0.238  1.00  0.00    +0.000 A 
BRANCH  21  24
ATOM     24  C   UNL     1       6.493   0.187   0.506  1.00  0.00    +0.000 A 
ATOM     25  C   UNL     1       7.119   0.953   1.505  1.00  0.00    +0.000 A 
ATOM     26  C   UNL     1       8.511   0.974   1.631  1.00  0.00    +0.000 A 
ATOM     27  C   UNL     1       9.301   0.229   0.759  1.00  0.00    +0.000 A 
ATOM     28  C   UNL     1       8.701  -0.536  -0.237  1.00  0.00    +0.000 A 
ATOM     29  C   UNL     1       7.309  -0.557  -0.362  1.00  0.00    +0.000 A 
ENDBRANCH  21  24
ENDBRANCH   4  18
TORSDOF 3
