REMARK  Name = 
REMARK  2 active torsions:
REMARK  status: ('A' for Active; 'I' for Inactive)
REMARK    1  A    between atoms: O_1  and  C_2
REMARK    2  A    between atoms: C_7  and  C_8
REMARK                            x       y       z     vdW  Elec       q    Type
REMARK                         _______ _______ _______ _____ _____    ______ ____
ROOT
ATOM      1  C   UNL     1       4.070  -0.340  -0.002  1.00  0.00    +0.000 A 
ATOM      2  C   UNL     1       3.953   0.774   0.831  1.00  0.00    +0.000 A 
ATOM      3  C   UNL     1       2.695   1.298   1.152  1.00  0.00    +0.000 A 
ATOM      4  C   UNL     1       1.588   0.650   0.599  1.00  0.00    +0.000 A 
ATOM      5  N   UNL     1       0.239   0.879   0.692  1.00  0.00    +0.000 N 
ATOM      6  C   UNL     1      -0.431  -0.064  -0.057  1.00  0.00    +0.000 A 
ATOM      7  N   UNL     1       0.441  -0.882  -0.623  1.00  0.00    +0.000 NA
ATOM      8  C   UNL     1       1.686  -0.459  -0.231  1.00  0.00    +0.000 A 
ATOM      9  C   UNL     1       2.951  -0.973  -0.544  1.00  0.00    +0.000 A 
ATOM     10  H   UNL     1      -0.190   1.619   1.224  1.00  0.00    +0.000 HD
ENDROOT
BRANCH   6  11
ATOM     11  C   UNL     1      -1.891  -0.136  -0.198  1.00  0.00    +0.000 A 
ATOM     12  C   UNL     1      -2.762   0.764   0.434  1.00  0.00    +0.000 A 
ATOM     13  C   UNL     1      -4.148   0.654   0.270  1.00  0.00    +0.000 A 
ATOM     14  C   UNL     1      -4.681  -0.356  -0.527  1.00  0.00    +0.000 A 
ATOM     15  C   UNL     1      -3.832  -1.258  -1.161  1.00  0.00    +0.000 A 
ATOM     16  C   UNL     1      -2.449  -1.147  -0.997  1.00  0.00    +0.000 A 
ENDBRANCH   6  11
BRANCH   1  17
ATOM     17  O   UNL     1       5.296  -0.854  -0.317  1.00  0.00    +0.000 OA
ATOM     18  H   UNL     1       5.981  -0.324   0.122  1.00  0.00    +0.000 HD
ENDBRANCH   1  17
TORSDOF 2
