REMARK  Name = 
REMARK  1 active torsions:
REMARK  status: ('A' for Active; 'I' for Inactive)
REMARK    1  A    between atoms: N_2  and  C_3
REMARK                            x       y       z     vdW  Elec       q    Type
REMARK                         _______ _______ _______ _____ _____    ______ ____
ROOT
ATOM      1 CL   UNL     1       0.683   0.000   0.000  1.00  0.00    +0.000 Cl
ATOM      2  H   UNL     1      -0.683   0.000   0.000  1.00  0.00    +0.000 HD
ENDROOT
TORSDOF 0
REMARK  Name = 
REMARK  1 active torsions:
REMARK  status: ('A' for Active; 'I' for Inactive)
REMARK    1  A    between atoms: N_2  and  C_3
REMARK                            x       y       z     vdW  Elec       q    Type
REMARK                         _______ _______ _______ _____ _____    ______ ____
ROOT
ATOM      1  C   UNL     1       0.062  -1.014  -0.130  1.00  0.00    +0.000 A 
ATOM      2  C   UNL     1      -1.162  -0.387  -0.133  1.00  0.00    +0.000 A 
ATOM      3  C   UNL     1      -2.316  -1.136  -0.312  1.00  0.00    +0.000 A 
ATOM      4  C   UNL     1      -3.561  -0.520  -0.318  1.00  0.00    +0.000 A 
ATOM      5  C   UNL     1      -3.645   0.855  -0.143  1.00  0.00    +0.000 A 
ATOM      6  C   UNL     1      -2.493   1.581   0.033  1.00  0.00    +0.000 A 
ATOM      7  C   UNL     1      -1.227   0.989   0.043  1.00  0.00    +0.000 A 
ATOM      8  N   UNL     1      -0.132   1.744   0.219  1.00  0.00    +0.000 NA
ATOM      9  C   UNL     1       1.087   1.127   0.223  1.00  0.00    +0.000 A 
ATOM     10  C   UNL     1       2.234   1.869   0.400  1.00  0.00    +0.000 A 
ATOM     11  C   UNL     1       3.498   1.284   0.411  1.00  0.00    +0.000 A 
ATOM     12  C   UNL     1       3.610  -0.080   0.239  1.00  0.00    +0.000 A 
ATOM     13  C   UNL     1       2.455  -0.822   0.061  1.00  0.00    +0.000 A 
ATOM     14  C   UNL     1       1.194  -0.244   0.050  1.00  0.00    +0.000 A 
ENDROOT
BRANCH   1  15
ATOM     15  N   UNL     1       0.176  -2.421  -0.307  1.00  0.00    +0.000 N 
ATOM     16  H   UNL     1       0.447  -2.853  -1.221  1.00  0.00    +0.000 HD
ATOM     17  H   UNL     1      -0.016  -3.065   0.503  1.00  0.00    +0.000 HD
ENDBRANCH   1  15
TORSDOF 1
