REMARK  Name = 
REMARK  2 active torsions:
REMARK  status: ('A' for Active; 'I' for Inactive)
REMARK    1  A    between atoms: C_1  and  C_2
REMARK    2  A    between atoms: C_7  and  N_8
REMARK                            x       y       z     vdW  Elec       q    Type
REMARK                         _______ _______ _______ _____ _____    ______ ____
ROOT
ATOM      1  C   UNL     1      -2.964   1.817   0.474  1.00  0.00    +0.000 C 
ATOM      2  C   UNL     1      -2.440   0.436   0.175  1.00  0.00    +0.000 A 
ATOM      3  C   UNL     1      -3.349  -0.626   0.049  1.00  0.00    +0.000 A 
ATOM      4  C   UNL     1      -2.891  -1.907  -0.213  1.00  0.00    +0.000 A 
ATOM      5  C   UNL     1      -1.524  -2.129  -0.358  1.00  0.00    +0.000 A 
ATOM      6  C   UNL     1      -0.587  -1.072  -0.245  1.00  0.00    +0.000 A 
ATOM      7  C   UNL     1       0.816  -1.238  -0.400  1.00  0.00    +0.000 A 
ATOM      8  C   UNL     1       1.684  -0.142  -0.175  1.00  0.00    +0.000 A 
ATOM      9  C   UNL     1       3.095  -0.234  -0.243  1.00  0.00    +0.000 A 
ATOM     10  C   UNL     1       3.903   0.881  -0.029  1.00  0.00    +0.000 A 
ATOM     11  C   UNL     1       3.313   2.104   0.253  1.00  0.00    +0.000 A 
ATOM     12  C   UNL     1       1.921   2.200   0.317  1.00  0.00    +0.000 A 
ATOM     13  C   UNL     1       1.097   1.101   0.110  1.00  0.00    +0.000 A 
ATOM     14  N   UNL     1      -0.229   1.272   0.198  1.00  0.00    +0.000 NA
ATOM     15  C   UNL     1      -1.060   0.227   0.039  1.00  0.00    +0.000 A 
ENDROOT
BRANCH   7  16
ATOM     16  N   UNL     1       1.392  -2.534  -0.563  1.00  0.00    +0.000 N 
ATOM     17  H   UNL     1       0.787  -3.171  -1.072  1.00  0.00    +0.000 HD
ATOM     18  H   UNL     1       1.617  -2.925   0.350  1.00  0.00    +0.000 HD
ENDBRANCH   7  16
TORSDOF 1
