REMARK  Name = 
REMARK  1 active torsions:
REMARK  status: ('A' for Active; 'I' for Inactive)
REMARK    1  A    between atoms: N_1  and  C_2
REMARK                            x       y       z     vdW  Elec       q    Type
REMARK                         _______ _______ _______ _____ _____    ______ ____
ROOT
ATOM      1  C   UNL     1       0.155  -1.062  -0.038  1.00  0.00    +0.000 A 
ATOM      2  C   UNL     1      -0.978  -0.260  -0.306  1.00  0.00    +0.000 A 
ATOM      3  C   UNL     1      -2.246  -0.772  -0.673  1.00  0.00    +0.000 A 
ATOM      4  C   UNL     1      -3.317   0.080  -0.939  1.00  0.00    +0.000 A 
ATOM      5  C   UNL     1      -3.139   1.452  -0.838  1.00  0.00    +0.000 A 
ATOM      6  C   UNL     1      -1.894   1.960  -0.463  1.00  0.00    +0.000 A 
ATOM      7  C   UNL     1      -0.813   1.132  -0.189  1.00  0.00    +0.000 A 
ATOM      8  N   UNL     1       0.341   1.700   0.185  1.00  0.00    +0.000 NA
ATOM      9  C   UNL     1       1.389   0.933   0.486  1.00  0.00    +0.000 A 
ATOM     10  N   UNL     1       2.513   1.544   0.878  1.00  0.00    +0.000 NA
ATOM     11  C   UNL     1       3.578   0.770   1.181  1.00  0.00    +0.000 A 
ATOM     12  C   UNL     1       3.540  -0.603   1.091  1.00  0.00    +0.000 A 
ATOM     13  N   UNL     1       2.431  -1.255   0.693  1.00  0.00    +0.000 NA
ATOM     14  C   UNL     1       1.352  -0.476   0.399  1.00  0.00    +0.000 A 
ENDROOT
BRANCH   1  15
ATOM     15  N   UNL     1       0.065  -2.490  -0.065  1.00  0.00    +0.000 N 
ATOM     16  H   UNL     1      -0.430  -2.840  -0.878  1.00  0.00    +0.000 HD
ATOM     17  H   UNL     1       1.006  -2.886   0.015  1.00  0.00    +0.000 HD
ENDBRANCH   1  15
TORSDOF 1
