REMARK  Name = 
REMARK  3 active torsions:
REMARK  status: ('A' for Active; 'I' for Inactive)
REMARK    1  A    between atoms: C_1  and  C_2
REMARK    2  A    between atoms: C_7  and  C_8
REMARK    3  A    between atoms: C_12  and  C_13
REMARK                            x       y       z     vdW  Elec       q    Type
REMARK                         _______ _______ _______ _____ _____    ______ ____
ROOT
ATOM      1  C   UNL     1       0.943   0.064   0.192  1.00  0.00    +0.000 A 
ATOM      2  N   UNL     1      -0.116   0.838   0.363  1.00  0.00    +0.000 NA
ATOM      3  C   UNL     1      -1.213   0.058   0.094  1.00  0.00    +0.000 A 
ATOM      4  C   UNL     1      -2.576   0.386   0.119  1.00  0.00    +0.000 A 
ATOM      5  C   UNL     1      -3.536  -0.598  -0.194  1.00  0.00    +0.000 A 
ATOM      6  C   UNL     1      -3.095  -1.894  -0.525  1.00  0.00    +0.000 A 
ATOM      7  C   UNL     1      -1.736  -2.242  -0.555  1.00  0.00    +0.000 A 
ATOM      8  C   UNL     1      -0.830  -1.232  -0.239  1.00  0.00    +0.000 A 
ATOM      9  N   UNL     1       0.538  -1.204  -0.165  1.00  0.00    +0.000 N 
ATOM     10  H   UNL     1       1.147  -1.990  -0.325  1.00  0.00    +0.000 HD
ENDROOT
BRANCH   1  17
ATOM     11  C   UNL     1       8.349   0.323   0.055  1.00  0.00    +0.000 C 
ATOM     12  C   UNL     1       6.899   0.553   0.250  1.00  0.00    +0.000 A 
ATOM     13  N   UNL     1       6.338   1.566   0.875  1.00  0.00    +0.000 NA
ATOM     14  C   UNL     1       4.984   1.349   0.795  1.00  0.00    +0.000 A 
ATOM     15  C   UNL     1       3.922   2.118   1.283  1.00  0.00    +0.000 A 
ATOM     16  C   UNL     1       2.612   1.667   1.063  1.00  0.00    +0.000 A 
ATOM     17  C   UNL     1       2.343   0.469   0.377  1.00  0.00    +0.000 A 
ATOM     18  C   UNL     1       3.412  -0.302  -0.120  1.00  0.00    +0.000 A 
ATOM     19  C   UNL     1       4.711   0.172   0.111  1.00  0.00    +0.000 A 
ATOM     20  N   UNL     1       5.948  -0.313  -0.231  1.00  0.00    +0.000 N 
ATOM     21  H   UNL     1       6.133  -1.160  -0.747  1.00  0.00    +0.000 HD
ENDBRANCH   1  17
BRANCH   5  22
ATOM     22  C   UNL     1      -4.973  -0.274  -0.177  1.00  0.00    +0.000 A 
ATOM     23  C   UNL     1      -5.880  -1.039   0.575  1.00  0.00    +0.000 A 
ATOM     24  C   UNL     1      -7.244  -0.732   0.591  1.00  0.00    +0.000 A 
ATOM     25  C   UNL     1      -7.723   0.347  -0.146  1.00  0.00    +0.000 A 
ATOM     26  C   UNL     1      -6.842   1.120  -0.898  1.00  0.00    +0.000 A 
ATOM     27  C   UNL     1      -5.479   0.811  -0.912  1.00  0.00    +0.000 A 
ENDBRANCH   5  22
TORSDOF 2
