REMARK  Name = 
REMARK  3 active torsions:
REMARK  status: ('A' for Active; 'I' for Inactive)
REMARK    1  A    between atoms: C_4  and  C_5
REMARK    2  A    between atoms: C_15  and  O_16
REMARK    3  A    between atoms: C_18  and  O_19
REMARK                            x       y       z     vdW  Elec       q    Type
REMARK                         _______ _______ _______ _____ _____    ______ ____
ROOT
ATOM      1  O   UNL     1       1.862   2.482  -1.580  1.00  0.00    +0.000 OA
ATOM      2  C   UNL     1       1.311   1.558  -0.993  1.00  0.00    +0.000 A 
ATOM      3  C   UNL     1      -0.146   1.369  -1.046  1.00  0.00    +0.000 A 
ATOM      4  C   UNL     1      -0.693   0.344  -0.378  1.00  0.00    +0.000 A 
ATOM      5  O   UNL     1       0.030  -0.581   0.361  1.00  0.00    +0.000 OA
ATOM      6  C   UNL     1       1.393  -0.437   0.435  1.00  0.00    +0.000 A 
ATOM      7  C   UNL     1       2.091  -1.377   1.193  1.00  0.00    +0.000 A 
ATOM      8  C   UNL     1       3.476  -1.279   1.302  1.00  0.00    +0.000 A 
ATOM      9  C   UNL     1       4.176  -0.258   0.666  1.00  0.00    +0.000 A 
ATOM     10  C   UNL     1       3.474   0.679  -0.090  1.00  0.00    +0.000 A 
ATOM     11  C   UNL     1       2.083   0.590  -0.205  1.00  0.00    +0.000 A 
ENDROOT
BRANCH   4  12
ATOM     12  C   UNL     1      -2.148   0.093  -0.398  1.00  0.00    +0.000 A 
ATOM     13  C   UNL     1      -3.075   1.138  -0.253  1.00  0.00    +0.000 A 
ATOM     14  C   UNL     1      -4.450   0.880  -0.264  1.00  0.00    +0.000 A 
ATOM     15  C   UNL     1      -4.907  -0.427  -0.414  1.00  0.00    +0.000 A 
ATOM     16 BR   UNL     1      -6.765  -0.776  -0.428  1.00  0.00    +0.000 Br
ATOM     17  C   UNL     1      -4.004  -1.478  -0.550  1.00  0.00    +0.000 A 
ATOM     18  C   UNL     1      -2.631  -1.217  -0.538  1.00  0.00    +0.000 A 
ENDBRANCH   4  12
BRANCH   8  19
ATOM     19  O   UNL     1       4.119  -2.219   2.051  1.00  0.00    +0.000 OA
ATOM     20  H   UNL     1       5.073  -2.029   2.043  1.00  0.00    +0.000 HD
ENDBRANCH   8  19
BRANCH  10  21
ATOM     21  O   UNL     1       4.211   1.662  -0.694  1.00  0.00    +0.000 OA
ATOM     22  H   UNL     1       3.594   2.247  -1.190  1.00  0.00    +0.000 HD
ENDBRANCH  10  21
TORSDOF 3
