REMARK  Name = 
REMARK  9 active torsions:
REMARK  status: ('A' for Active; 'I' for Inactive)
REMARK    1  A    between atoms: C_4  and  C_5
REMARK    2  A    between atoms: C_9  and  C_10
REMARK    3  A    between atoms: C_11  and  O_12
REMARK    4  A    between atoms: C_14  and  O_15
REMARK    5  A    between atoms: C_20  and  C_21
REMARK    6  A    between atoms: C_24  and  O_25
REMARK    7  A    between atoms: C_26  and  O_27
REMARK    8  A    between atoms: C_35  and  O_36
REMARK    9  A    between atoms: C_38  and  O_39
REMARK                            x       y       z     vdW  Elec       q    Type
REMARK                         _______ _______ _______ _____ _____    ______ ____
ROOT
ATOM      1  C   UNL     1      -0.985   3.165   0.593  1.00  0.00    +0.000 A 
ATOM      2  C   UNL     1      -0.822   4.563   0.641  1.00  0.00    +0.000 A 
ATOM      3  C   UNL     1      -1.723   5.426   0.017  1.00  0.00    +0.000 A 
ATOM      4  C   UNL     1      -2.811   4.905  -0.674  1.00  0.00    +0.000 A 
ATOM      5  C   UNL     1      -2.999   3.523  -0.743  1.00  0.00    +0.000 A 
ATOM      6  C   UNL     1      -4.141   2.943  -1.463  1.00  0.00    +0.000 A 
ATOM      7  O   UNL     1      -4.961   3.654  -2.034  1.00  0.00    +0.000 OA
ATOM      8  C   UNL     1      -4.264   1.480  -1.466  1.00  0.00    +0.000 A 
ATOM      9  C   UNL     1      -3.342   0.755  -0.818  1.00  0.00    +0.000 A 
ATOM     10  O   UNL     1      -2.254   1.291  -0.154  1.00  0.00    +0.000 OA
ATOM     11  C   UNL     1      -2.097   2.660  -0.115  1.00  0.00    +0.000 A 
ENDROOT
BRANCH   1  16
ATOM     12  C   UNL     1       1.821   0.667   1.145  1.00  0.00    +0.000 A 
ATOM     13  C   UNL     1       1.741   0.503   2.535  1.00  0.00    +0.000 A 
ATOM     14  C   UNL     1       0.793   1.202   3.283  1.00  0.00    +0.000 A 
ATOM     15  C   UNL     1      -0.093   2.071   2.650  1.00  0.00    +0.000 A 
ATOM     16  C   UNL     1      -0.044   2.253   1.261  1.00  0.00    +0.000 A 
ATOM     17  C   UNL     1       0.917   1.542   0.520  1.00  0.00    +0.000 A 
BRANCH  12  21
ATOM     18  O   UNL     1       5.200   0.133  -2.243  1.00  0.00    +0.000 OA
ATOM     19  C   UNL     1       4.529  -0.336  -1.331  1.00  0.00    +0.000 A 
ATOM     20  C   UNL     1       3.544   0.478  -0.603  1.00  0.00    +0.000 A 
ATOM     21  C   UNL     1       2.821  -0.095   0.370  1.00  0.00    +0.000 A 
ATOM     22  O   UNL     1       2.956  -1.417   0.766  1.00  0.00    +0.000 OA
ATOM     23  C   UNL     1       3.873  -2.207   0.117  1.00  0.00    +0.000 A 
ATOM     24  C   UNL     1       3.985  -3.532   0.540  1.00  0.00    +0.000 A 
ATOM     25  C   UNL     1       4.904  -4.374  -0.081  1.00  0.00    +0.000 A 
ATOM     26  C   UNL     1       5.706  -3.919  -1.125  1.00  0.00    +0.000 A 
ATOM     27  C   UNL     1       5.586  -2.596  -1.546  1.00  0.00    +0.000 A 
ATOM     28  C   UNL     1       4.673  -1.738  -0.922  1.00  0.00    +0.000 A 
BRANCH  25  29
ATOM     29  O   UNL     1       4.991  -5.658   0.370  1.00  0.00    +0.000 OA
ATOM     30  H   UNL     1       5.686  -6.120  -0.132  1.00  0.00    +0.000 HD
ENDBRANCH  25  29
BRANCH  27  31
ATOM     31  O   UNL     1       6.393  -2.203  -2.579  1.00  0.00    +0.000 OA
ATOM     32  H   UNL     1       6.212  -1.253  -2.768  1.00  0.00    +0.000 HD
ENDBRANCH  27  31
ENDBRANCH  12  21
ENDBRANCH   1  16
BRANCH   9  33
ATOM     33  C   UNL     1      -3.400  -0.718  -0.774  1.00  0.00    +0.000 A 
ATOM     34  C   UNL     1      -2.232  -1.469  -1.009  1.00  0.00    +0.000 A 
ATOM     35  C   UNL     1      -2.253  -2.864  -0.952  1.00  0.00    +0.000 A 
ATOM     36  C   UNL     1      -3.440  -3.509  -0.645  1.00  0.00    +0.000 A 
ATOM     37  C   UNL     1      -4.598  -2.782  -0.390  1.00  0.00    +0.000 A 
ATOM     38  C   UNL     1      -4.590  -1.392  -0.452  1.00  0.00    +0.000 A 
BRANCH  36  39
ATOM     39  O   UNL     1      -3.458  -4.872  -0.582  1.00  0.00    +0.000 OA
ATOM     40  H   UNL     1      -4.381  -5.094  -0.346  1.00  0.00    +0.000 HD
ENDBRANCH  36  39
BRANCH  37  41
ATOM     41  O   UNL     1      -5.725  -3.486  -0.069  1.00  0.00    +0.000 OA
ATOM     42  H   UNL     1      -6.432  -2.855   0.148  1.00  0.00    +0.000 HD
ENDBRANCH  37  41
ENDBRANCH   9  33
BRANCH   2  43
ATOM     43  O   UNL     1       0.224   5.164   1.291  1.00  0.00    +0.000 OA
ATOM     44  H   UNL     1       0.817   4.484   1.654  1.00  0.00    +0.000 HD
ENDBRANCH   2  43
BRANCH   4  45
ATOM     45  O   UNL     1      -3.656   5.806  -1.264  1.00  0.00    +0.000 OA
ATOM     46  H   UNL     1      -4.372   5.309  -1.720  1.00  0.00    +0.000 HD
ENDBRANCH   4  45
TORSDOF 9
