REMARK  Name = 
REMARK  1 active torsions:
REMARK  status: ('A' for Active; 'I' for Inactive)
REMARK    1  A    between atoms: N_1  and  C_2
REMARK                            x       y       z     vdW  Elec       q    Type
REMARK                         _______ _______ _______ _____ _____    ______ ____
ROOT
ATOM      1  C   UNL     1      -1.175   1.475  -0.072  1.00  0.00    +0.000 A 
ATOM      2  C   UNL     1      -2.123   0.416  -0.089  1.00  0.00    +0.000 A 
ATOM      3  C   UNL     1      -3.530   0.587  -0.173  1.00  0.00    +0.000 A 
ATOM      4  C   UNL     1      -4.400  -0.504  -0.152  1.00  0.00    +0.000 A 
ATOM      5  C   UNL     1      -3.883  -1.785  -0.049  1.00  0.00    +0.000 A 
ATOM      6  C   UNL     1      -2.500  -1.963   0.019  1.00  0.00    +0.000 A 
ATOM      7  C   UNL     1      -1.616  -0.892  -0.008  1.00  0.00    +0.000 A 
ATOM      8  N   UNL     1      -0.307  -1.165   0.037  1.00  0.00    +0.000 NA
ATOM      9  C   UNL     1       0.608  -0.177  -0.052  1.00  0.00    +0.000 A 
ATOM     10  C   UNL     1       0.216   1.174  -0.136  1.00  0.00    +0.000 A 
ATOM     11  C   UNL     1       1.222   2.153  -0.271  1.00  0.00    +0.000 A 
ATOM     12  C   UNL     1       2.572   1.807  -0.293  1.00  0.00    +0.000 A 
ATOM     13  C   UNL     1       2.973   0.493  -0.187  1.00  0.00    +0.000 A 
ATOM     14  N   UNL     1       4.291   0.226  -0.208  1.00  0.00    +0.000 NA
ATOM     15  C   UNL     1       4.680  -1.063  -0.112  1.00  0.00    +0.000 A 
ATOM     16  C   UNL     1       3.803  -2.120   0.005  1.00  0.00    +0.000 A 
ATOM     17  C   UNL     1       2.444  -1.832   0.026  1.00  0.00    +0.000 A 
ATOM     18  C   UNL     1       1.983  -0.503  -0.069  1.00  0.00    +0.000 A 
ENDROOT
BRANCH   1  19
ATOM     19  N   UNL     1      -1.619   2.824  -0.188  1.00  0.00    +0.000 N 
ATOM     20  H   UNL     1      -0.965   3.493   0.203  1.00  0.00    +0.000 HD
ATOM     21  H   UNL     1      -2.540   2.973   0.210  1.00  0.00    +0.000 HD
ENDBRANCH   1  19
TORSDOF 1
