REMARK  Name = 
REMARK  4 active torsions:
REMARK  status: ('A' for Active; 'I' for Inactive)
REMARK    1  A    between atoms: C_1  and  C_2
REMARK    2  A    between atoms: C_7  and  C_11
REMARK    3  A    between atoms: C_16  and  C_20
REMARK    4  A    between atoms: C_23  and  N_24
REMARK                            x       y       z     vdW  Elec       q    Type
REMARK                         _______ _______ _______ _____ _____    ______ ____
ROOT
ATOM      1  C   UNL     1       3.606  -0.192   0.720  1.00  0.00    +0.000 A 
ATOM      2  C   UNL     1       3.395  -0.411   2.095  1.00  0.00    +0.000 A 
ATOM      3  C   UNL     1       2.114  -0.486   2.658  1.00  0.00    +0.000 A 
ATOM      4  C   UNL     1       1.044  -0.332   1.780  1.00  0.00    +0.000 A 
ATOM      5  N   UNL     1      -0.315  -0.344   1.962  1.00  0.00    +0.000 N 
ATOM      6  C   UNL     1      -0.932  -0.140   0.748  1.00  0.00    +0.000 A 
ATOM      7  N   UNL     1      -0.018   0.000  -0.198  1.00  0.00    +0.000 NA
ATOM      8  C   UNL     1       1.201  -0.115   0.421  1.00  0.00    +0.000 A 
ATOM      9  C   UNL     1       2.492  -0.042  -0.125  1.00  0.00    +0.000 A 
ATOM     10  H   UNL     1      -0.782  -0.482   2.844  1.00  0.00    +0.000 HD
ENDROOT
BRANCH   1  17
ATOM     11  C   UNL     1      10.894  -0.100  -0.492  1.00  0.00    +0.000 C 
ATOM     12  C   UNL     1       9.415  -0.014  -0.736  1.00  0.00    +0.000 A 
ATOM     13  C   UNL     1       8.924   0.173  -2.037  1.00  0.00    +0.000 A 
ATOM     14  C   UNL     1       7.550   0.227  -2.306  1.00  0.00    +0.000 A 
ATOM     15  C   UNL     1       6.693   0.074  -1.216  1.00  0.00    +0.000 A 
ATOM     16  N   UNL     1       5.327   0.070  -1.104  1.00  0.00    +0.000 N 
ATOM     17  C   UNL     1       4.984  -0.128   0.216  1.00  0.00    +0.000 A 
ATOM     18  N   UNL     1       6.080  -0.250   0.947  1.00  0.00    +0.000 NA
ATOM     19  C   UNL     1       7.138  -0.127   0.082  1.00  0.00    +0.000 A 
ATOM     20  C   UNL     1       8.517  -0.179   0.334  1.00  0.00    +0.000 A 
ATOM     21  H   UNL     1       4.681   0.191  -1.868  1.00  0.00    +0.000 HD
ENDBRANCH   1  17
BRANCH   6  22
ATOM     22  C   UNL     1      -2.386  -0.090   0.549  1.00  0.00    +0.000 A 
ATOM     23  C   UNL     1      -3.304  -0.231   1.593  1.00  0.00    +0.000 A 
ATOM     24  C   UNL     1      -4.686  -0.174   1.347  1.00  0.00    +0.000 A 
ATOM     25  C   UNL     1      -5.213   0.027   0.061  1.00  0.00    +0.000 A 
ATOM     26  C   UNL     1      -4.277   0.160  -0.973  1.00  0.00    +0.000 A 
ATOM     27  C   UNL     1      -2.895   0.106  -0.738  1.00  0.00    +0.000 A 
BRANCH  25  28
ATOM     28  N   UNL     1      -6.579   0.071  -0.164  1.00  0.00    +0.000 N 
ATOM     29  C   UNL     1      -7.504   0.503   0.899  1.00  0.00    +0.000 C 
ATOM     30  C   UNL     1      -8.760   1.192   0.315  1.00  0.00    +0.000 C 
ATOM     31  N   UNL     1      -9.518   0.402  -0.671  1.00  0.00    +0.000 NA
ATOM     32  C   UNL     1      -8.625  -0.472  -1.457  1.00  0.00    +0.000 C 
ATOM     33  C   UNL     1      -7.145  -0.030  -1.519  1.00  0.00    +0.000 C 
ATOM     34  H   UNL     1     -10.193  -0.188  -0.186  1.00  0.00    +0.000 HD
ENDBRANCH  25  28
ENDBRANCH   6  22
TORSDOF 3
