REMARK  Name = 
REMARK  12 active torsions:
REMARK  status: ('A' for Active; 'I' for Inactive)
REMARK    1  A    between atoms: C_2  and  O_3
REMARK    2  A    between atoms: C_2  and  C_13
REMARK    3  A    between atoms: O_3  and  C_4
REMARK    4  A    between atoms: C_6  and  O_7
REMARK    5  A    between atoms: C_8  and  O_9
REMARK    6  A    between atoms: C_10  and  O_11
REMARK    7  A    between atoms: C_16  and  O_17
REMARK    8  A    between atoms: C_19  and  O_20
REMARK    9  A    between atoms: C_24  and  C_25
REMARK   10  A    between atoms: C_27  and  O_28
REMARK   11  A    between atoms: C_29  and  O_30
REMARK   12  A    between atoms: C_31  and  O_32
REMARK                            x       y       z     vdW  Elec       q    Type
REMARK                         _______ _______ _______ _____ _____    ______ ____
ROOT
ATOM      1  C   UNL     1      -0.617  -1.130   1.563  1.00  0.00    +0.000 C 
ATOM      2  C   UNL     1      -0.263  -2.263   0.608  1.00  0.00    +0.000 C 
ATOM      3  C   UNL     1      -1.508  -3.014   0.239  1.00  0.00    +0.000 A 
ATOM      4  C   UNL     1      -1.442  -4.339  -0.215  1.00  0.00    +0.000 A 
ATOM      5  C   UNL     1      -2.593  -5.038  -0.574  1.00  0.00    +0.000 A 
ATOM      6  C   UNL     1      -3.824  -4.402  -0.485  1.00  0.00    +0.000 A 
ATOM      7  C   UNL     1      -3.916  -3.077  -0.065  1.00  0.00    +0.000 A 
ATOM      8  C   UNL     1      -2.756  -2.382   0.288  1.00  0.00    +0.000 A 
ATOM      9  O   UNL     1      -2.948  -1.079   0.653  1.00  0.00    +0.000 OA
ATOM     10  C   UNL     1      -1.801  -0.301   1.035  1.00  0.00    +0.000 C 
ENDROOT
BRANCH  10  11
ATOM     11  C   UNL     1      -1.453   0.704  -0.065  1.00  0.00    +0.000 A 
ATOM     12  C   UNL     1      -1.298   0.321  -1.412  1.00  0.00    +0.000 A 
ATOM     13  C   UNL     1      -0.868   1.252  -2.361  1.00  0.00    +0.000 A 
ATOM     14  C   UNL     1      -0.606   2.563  -1.995  1.00  0.00    +0.000 A 
ATOM     15  C   UNL     1      -0.800   2.966  -0.680  1.00  0.00    +0.000 A 
ATOM     16  C   UNL     1      -1.218   2.053   0.284  1.00  0.00    +0.000 A 
BRANCH  13  17
ATOM     17  O   UNL     1      -0.698   0.857  -3.657  1.00  0.00    +0.000 OA
ATOM     18  H   UNL     1      -0.488   1.680  -4.148  1.00  0.00    +0.000 HD
ENDBRANCH  13  17
BRANCH  14  19
ATOM     19  O   UNL     1      -0.159   3.449  -2.937  1.00  0.00    +0.000 OA
ATOM     20  H   UNL     1      -0.029   4.283  -2.420  1.00  0.00    +0.000 HD
ENDBRANCH  14  19
BRANCH  15  21
ATOM     21  O   UNL     1      -0.555   4.266  -0.360  1.00  0.00    +0.000 OA
ATOM     22  H   UNL     1      -1.162   4.511   0.373  1.00  0.00    +0.000 HD
ENDBRANCH  15  21
ENDBRANCH  10  11
BRANCH   1  24
ATOM     23  O   UNL     1       0.440   0.652   2.783  1.00  0.00    +0.000 OA
ATOM     24  C   UNL     1       0.528  -0.202   1.904  1.00  0.00    +0.000 C 
BRANCH  24  25
ATOM     25  O   UNL     1       1.611  -0.398   1.060  1.00  0.00    +0.000 OA
BRANCH  25  26
ATOM     26  C   UNL     1       2.499   0.681   0.986  1.00  0.00    +0.000 A 
ATOM     27  C   UNL     1       2.530   1.385  -0.230  1.00  0.00    +0.000 A 
ATOM     28  C   UNL     1       3.394   2.461  -0.353  1.00  0.00    +0.000 A 
ATOM     29  C   UNL     1       4.225   2.814   0.709  1.00  0.00    +0.000 A 
ATOM     30  C   UNL     1       4.208   2.083   1.896  1.00  0.00    +0.000 A 
ATOM     31  C   UNL     1       3.347   1.004   2.048  1.00  0.00    +0.000 A 
BRANCH  28  32
ATOM     32  O   UNL     1       3.476   3.183  -1.498  1.00  0.00    +0.000 OA
ATOM     33  H   UNL     1       2.865   2.783  -2.145  1.00  0.00    +0.000 HD
ENDBRANCH  28  32
BRANCH  29  34
ATOM     34  O   UNL     1       5.081   3.874   0.595  1.00  0.00    +0.000 OA
ATOM     35  H   UNL     1       4.906   4.223  -0.306  1.00  0.00    +0.000 HD
ENDBRANCH  29  34
BRANCH  30  36
ATOM     36  O   UNL     1       5.042   2.430   2.921  1.00  0.00    +0.000 OA
ATOM     37  H   UNL     1       5.517   3.217   2.591  1.00  0.00    +0.000 HD
ENDBRANCH  30  36
ENDBRANCH  25  26
ENDBRANCH  24  25
ENDBRANCH   1  24
BRANCH   4  38
ATOM     38  O   UNL     1      -0.216  -4.943  -0.305  1.00  0.00    +0.000 OA
ATOM     39  H   UNL     1      -0.337  -5.825  -0.693  1.00  0.00    +0.000 HD
ENDBRANCH   4  38
BRANCH   6  40
ATOM     40  O   UNL     1      -4.933  -5.116  -0.828  1.00  0.00    +0.000 OA
ATOM     41  H   UNL     1      -5.723  -4.604  -0.575  1.00  0.00    +0.000 HD
ENDBRANCH   6  40
TORSDOF 12
