REMARK  Name = 
REMARK  7 active torsions:
REMARK  status: ('A' for Active; 'I' for Inactive)
REMARK    1  A    between atoms: C_1  and  C_2
REMARK    2  A    between atoms: C_3  and  C_4
REMARK    3  A    between atoms: C_7  and  C_10
REMARK    4  A    between atoms: C_8  and  O_9
REMARK    5  A    between atoms: C_13  and  C_14
REMARK    6  A    between atoms: C_13  and  C_15
REMARK    7  A    between atoms: C_15  and  O_17
REMARK                            x       y       z     vdW  Elec       q    Type
REMARK                         _______ _______ _______ _____ _____    ______ ____
ROOT
ATOM      1  C   UNL     1       3.750  -1.395   0.568  1.00  0.00    +0.000 C 
ATOM      2  C   UNL     1       2.491  -0.615   0.285  1.00  0.00    +0.000 A 
ATOM      3  C   UNL     1       1.232  -1.252   0.257  1.00  0.00    +0.000 A 
ATOM      4  C   UNL     1       1.117  -2.740   0.486  1.00  0.00    +0.000 C 
ATOM      5  C   UNL     1       0.081  -0.493  -0.032  1.00  0.00    +0.000 A 
ATOM      6  C   UNL     1       0.162   0.888  -0.287  1.00  0.00    +0.000 A 
ATOM      7  C   UNL     1       1.413   1.543  -0.198  1.00  0.00    +0.000 A 
ATOM      8  C   UNL     1       2.550   0.777   0.108  1.00  0.00    +0.000 A 
ATOM      9  C   UNL     1       1.505   3.023  -0.473  1.00  0.00    +0.000 C 
ATOM     10  C   UNL     1      -1.089   1.662  -0.617  1.00  0.00    +0.000 C 
ATOM     11  C   UNL     1      -2.227   0.745  -1.026  1.00  0.00    +0.000 C 
ATOM     12  C   UNL     1      -2.326  -0.450  -0.081  1.00  0.00    +0.000 C 
ATOM     13  C   UNL     1      -2.700  -0.078   1.360  1.00  0.00    +0.000 C 
ATOM     14  O   UNL     1      -1.100  -1.191  -0.070  1.00  0.00    +0.000 OA
ENDROOT
BRANCH   8  15
ATOM     15  O   UNL     1       3.778   1.371   0.251  1.00  0.00    +0.000 OA
ATOM     16  H   UNL     1       3.648   2.208   0.723  1.00  0.00    +0.000 HD
ENDBRANCH   8  15
BRANCH  12  17
ATOM     17  C   UNL     1      -3.404  -1.405  -0.617  1.00  0.00    +0.000 C 
ATOM     18  O   UNL     1      -3.269  -2.567  -0.965  1.00  0.00    +0.000 OA
BRANCH  17  19
ATOM     19  O   UNL     1      -4.633  -0.840  -0.687  1.00  0.00    +0.000 OA
ATOM     20  H   UNL     1      -5.193  -1.566  -1.037  1.00  0.00    +0.000 HD
ENDBRANCH  17  19
ENDBRANCH  12  17
TORSDOF 3
