REMARK  Name = 
REMARK  3 active torsions:
REMARK  status: ('A' for Active; 'I' for Inactive)
REMARK    1  A    between atoms: C_2  and  C_4
REMARK    2  A    between atoms: C_9  and  C_13
REMARK    3  A    between atoms: C_16  and  C_17
REMARK                            x       y       z     vdW  Elec       q    Type
REMARK                         _______ _______ _______ _____ _____    ______ ____
ROOT
ATOM      1  C   UNL     1      -4.321   0.558  -0.180  1.00  0.00    +0.000 A 
ATOM      2  C   UNL     1      -4.206   0.067  -1.488  1.00  0.00    +0.000 A 
ATOM      3  C   UNL     1      -2.963  -0.295  -2.022  1.00  0.00    +0.000 A 
ATOM      4  C   UNL     1      -1.859  -0.144  -1.181  1.00  0.00    +0.000 A 
ATOM      5  N   UNL     1      -0.522  -0.391  -1.358  1.00  0.00    +0.000 N 
ATOM      6  C   UNL     1       0.150  -0.069  -0.200  1.00  0.00    +0.000 A 
ATOM      7  N   UNL     1      -0.708   0.364   0.708  1.00  0.00    +0.000 NA
ATOM      8  C   UNL     1      -1.946   0.333   0.119  1.00  0.00    +0.000 A 
ATOM      9  C   UNL     1      -3.194   0.694   0.643  1.00  0.00    +0.000 A 
ATOM     10  H   UNL     1      -0.104  -0.766  -2.195  1.00  0.00    +0.000 HD
ENDROOT
BRANCH   1  12
ATOM     11  N   UNL     1      -5.856   1.914   1.153  1.00  0.00    +0.000 NA
ATOM     12  C   UNL     1      -5.664   0.924   0.341  1.00  0.00    +0.000 C 
ATOM     13  N   UNL     1      -6.762   0.204  -0.026  1.00  0.00    +0.000 N 
ATOM     14  H   UNL     1      -4.983   2.419   1.337  1.00  0.00    +0.000 HD
ATOM     15  H   UNL     1      -7.552   0.438   0.569  1.00  0.00    +0.000 HD
ATOM     16  H   UNL     1      -6.622  -0.796  -0.100  1.00  0.00    +0.000 HD
ENDBRANCH   1  12
BRANCH   6  17
ATOM     17  C   UNL     1       1.599  -0.209  -0.009  1.00  0.00    +0.000 A 
ATOM     18  C   UNL     1       2.128  -0.114   1.288  1.00  0.00    +0.000 A 
ATOM     19  C   UNL     1       3.501  -0.241   1.521  1.00  0.00    +0.000 A 
ATOM     20  C   UNL     1       4.369  -0.467   0.451  1.00  0.00    +0.000 A 
ATOM     21  C   UNL     1       3.862  -0.554  -0.848  1.00  0.00    +0.000 A 
ATOM     22  C   UNL     1       2.485  -0.425  -1.076  1.00  0.00    +0.000 A 
BRANCH  20  23
ATOM     23  C   UNL     1       5.830  -0.587   0.702  1.00  0.00    +0.000 C 
ATOM     24  N   UNL     1       6.599  -1.362   0.006  1.00  0.00    +0.000 NA
ATOM     25  N   UNL     1       6.418   0.140   1.693  1.00  0.00    +0.000 N 
ATOM     26  H   UNL     1       6.062  -1.904  -0.676  1.00  0.00    +0.000 HD
ATOM     27  H   UNL     1       6.054   1.075   1.835  1.00  0.00    +0.000 HD
ATOM     28  H   UNL     1       7.430   0.125   1.603  1.00  0.00    +0.000 HD
ENDBRANCH  20  23
ENDBRANCH   6  17
TORSDOF 3
