REMARK  Name = 
REMARK  6 active torsions:
REMARK  status: ('A' for Active; 'I' for Inactive)
REMARK    1  A    between atoms: O_1  and  C_2
REMARK    2  A    between atoms: C_3  and  O_4
REMARK    3  A    between atoms: C_8  and  C_9
REMARK    4  A    between atoms: C_9  and  O_10
REMARK    5  A    between atoms: C_9  and  C_11
REMARK    6  A    between atoms: C_11  and  O_12
REMARK                            x       y       z     vdW  Elec       q    Type
REMARK                         _______ _______ _______ _____ _____    ______ ____
ROOT
ATOM      1  C   UNL     1      -1.249   0.358  -0.357  1.00  0.00    +0.000 C 
ATOM      2  C   UNL     1      -2.270  -0.471  -0.173  1.00  0.00    +0.000 C 
ATOM      3  C   UNL     1      -2.135  -1.024   1.187  1.00  0.00    +0.000 C 
ATOM      4  O   UNL     1      -2.871  -1.836   1.717  1.00  0.00    +0.000 OA
ATOM      5  O   UNL     1      -1.046  -0.444   1.774  1.00  0.00    +0.000 OA
ATOM      6  C   UNL     1      -0.342   0.380   0.817  1.00  0.00    +0.000 C 
ENDROOT
BRANCH   1   7
ATOM      7  O   UNL     1      -1.098   1.164  -1.458  1.00  0.00    +0.000 OA
ATOM      8  H   UNL     1      -0.586   1.955  -1.205  1.00  0.00    +0.000 HD
ENDBRANCH   1   7
BRANCH   2   9
ATOM      9  O   UNL     1      -3.296  -0.711  -1.041  1.00  0.00    +0.000 OA
ATOM     10  H   UNL     1      -3.112  -0.171  -1.831  1.00  0.00    +0.000 HD
ENDBRANCH   2   9
BRANCH   6  11
ATOM     11  C   UNL     1       1.062  -0.227   0.612  1.00  0.00    +0.000 C 
BRANCH  11  12
ATOM     12  O   UNL     1       1.902   0.183   1.710  1.00  0.00    +0.000 OA
ATOM     13  H   UNL     1       2.796  -0.144   1.476  1.00  0.00    +0.000 HD
ENDBRANCH  11  12
BRANCH  11  14
ATOM     14  C   UNL     1       1.770   0.208  -0.675  1.00  0.00    +0.000 C 
BRANCH  14  15
ATOM     15  O   UNL     1       3.096  -0.330  -0.661  1.00  0.00    +0.000 OA
ATOM     16  H   UNL     1       3.515  -0.086  -1.506  1.00  0.00    +0.000 HD
ENDBRANCH  14  15
ENDBRANCH  11  14
ENDBRANCH   6  11
TORSDOF 6
