REMARK  Name = 
REMARK  6 active torsions:
REMARK  status: ('A' for Active; 'I' for Inactive)
REMARK    1  A    between atoms: N_1  and  C_2
REMARK    2  A    between atoms: C_2  and  C_3
REMARK    3  A    between atoms: C_3  and  S_4
REMARK    4  A    between atoms: S_4  and  P_5
REMARK    5  A    between atoms: P_5  and  O_7
REMARK    6  A    between atoms: P_5  and  O_8
REMARK                            x       y       z     vdW  Elec       q    Type
REMARK                         _______ _______ _______ _____ _____    ______ ____
ROOT
ATOM      1  S   UNL     1      -0.529   1.138  -0.340  1.00  0.00    +0.000 S 
ENDROOT
BRANCH   1   2
ATOM      2  P   UNL     1      -2.284   0.052  -0.283  1.00  0.00    +0.000 P 
ATOM      3  O   UNL     1      -2.264  -1.139  -1.181  1.00  0.00    +0.000 OA
BRANCH   2   4
ATOM      4  O   UNL     1      -2.633  -0.347   1.228  1.00  0.00    +0.000 OA
ATOM      5  H   UNL     1      -3.382  -0.972   1.240  1.00  0.00    +0.000 HD
ENDBRANCH   2   4
BRANCH   2   6
ATOM      6  O   UNL     1      -3.510   1.041  -0.579  1.00  0.00    +0.000 OA
ATOM      7  H   UNL     1      -3.279   1.973  -0.408  1.00  0.00    +0.000 HD
ENDBRANCH   2   6
ENDBRANCH   1   2
BRANCH   1   8
ATOM      8  C   UNL     1       0.731  -0.137  -0.064  1.00  0.00    +0.000 C 
BRANCH   8   9
ATOM      9  C   UNL     1       2.131   0.480  -0.018  1.00  0.00    +0.000 C 
BRANCH   9  10
ATOM     10  N   UNL     1       3.170  -0.529   0.201  1.00  0.00    +0.000 NA
ATOM     11  H   UNL     1       2.988  -1.033   1.068  1.00  0.00    +0.000 HD
ATOM     12  H   UNL     1       3.140  -1.224  -0.545  1.00  0.00    +0.000 HD
ENDBRANCH   9  10
ENDBRANCH   8   9
ENDBRANCH   1   8
TORSDOF 6
