REMARK  Name = 
REMARK  6 active torsions:
REMARK  status: ('A' for Active; 'I' for Inactive)
REMARK    1  A    between atoms: N_1  and  C_2
REMARK    2  A    between atoms: C_2  and  C_3
REMARK    3  A    between atoms: C_3  and  S_4
REMARK    4  A    between atoms: S_4  and  C_5
REMARK    5  A    between atoms: C_5  and  C_6
REMARK    6  A    between atoms: C_6  and  N_7
REMARK                            x       y       z     vdW  Elec       q    Type
REMARK                         _______ _______ _______ _____ _____    ______ ____
ROOT
ATOM      1  S   UNL     1       0.375   1.594   0.921  1.00  0.00    +0.000 S 
ENDROOT
BRANCH   1   2
ATOM      2  C   UNL     1       1.260   1.014  -0.574  1.00  0.00    +0.000 C 
BRANCH   2   3
ATOM      3  C   UNL     1       1.701  -0.460  -0.593  1.00  0.00    +0.000 C 
BRANCH   3   4
ATOM      4  N   UNL     1       2.437  -0.883   0.595  1.00  0.00    +0.000 NA
ATOM      5  H   UNL     1       3.163  -0.204   0.818  1.00  0.00    +0.000 HD
ATOM      6  H   UNL     1       2.905  -1.770   0.417  1.00  0.00    +0.000 HD
ENDBRANCH   3   4
ENDBRANCH   2   3
ENDBRANCH   1   2
BRANCH   1   7
ATOM      7  C   UNL     1      -0.944   0.341   1.067  1.00  0.00    +0.000 C 
BRANCH   7   8
ATOM      8  C   UNL     1      -1.923   0.358  -0.112  1.00  0.00    +0.000 C 
BRANCH   8   9
ATOM      9  N   UNL     1      -3.013  -0.607   0.062  1.00  0.00    +0.000 NA
ATOM     10  H   UNL     1      -2.627  -1.538   0.218  1.00  0.00    +0.000 HD
ATOM     11  H   UNL     1      -3.538  -0.377   0.906  1.00  0.00    +0.000 HD
ENDBRANCH   8   9
ENDBRANCH   7   8
ENDBRANCH   1   7
TORSDOF 6
