ATOM      1 O5'   DC A   1      18.935  34.195  25.617  1.00 20.00    +0.000 OA
ATOM      2 C5'   DC A   1      19.130  33.921  24.219  1.00 20.00    +0.000 A 
ATOM      3 C4'   DC A   1      19.961  32.668  24.100  1.00 20.00    +0.000 A 
ATOM      4 O4'   DC A   1      19.360  31.583  24.852  1.00 20.00    +0.000 OA
ATOM      5 C3'   DC A   1      20.172  32.122  22.694  1.00 20.00    +0.000 A 
ATOM      6 O3'   DC A   1      21.350  31.325  22.681  1.00 20.00    +0.000 OA
ATOM      7 C2'   DC A   1      18.948  31.223  22.647  1.00 20.00    +0.000 A 
ATOM      8 C1'   DC A   1      19.231  30.482  23.944  1.00 20.00    +0.000 A 
ATOM      9 N1    DC A   1      18.070  29.661  24.380  1.00 20.00    +0.000 NA
ATOM     10 C2    DC A   1      18.224  28.454  25.015  1.00 20.00    +0.000 A 
ATOM     11 O2    DC A   1      19.360  28.014  25.214  1.00 20.00    +0.000 OA
ATOM     12 N3    DC A   1      17.143  27.761  25.377  1.00 20.00    +0.000 NA
ATOM     13 C4    DC A   1      15.917  28.226  25.120  1.00 20.00    +0.000 A 
ATOM     14 N4    DC A   1      14.828  27.477  25.444  1.00 20.00    +0.000 NA
ATOM     15 C5    DC A   1      15.719  29.442  24.471  1.00 20.00    +0.000 A 
ATOM     16 C6    DC A   1      16.843  30.171  24.101  1.00 20.00    +0.000 A 
ATOM     17 P     DG A   2      22.409  31.286  21.483  1.00 20.00    +1.200 P 
ATOM     18 OP1   DG A   2      23.536  32.157  21.851  1.00 20.00    -0.600 OA
ATOM     19 OP2   DG A   2      21.822  31.459  20.139  1.00 20.00    -0.600 OA
ATOM     20 O5'   DG A   2      22.840  29.751  21.498  1.00 20.00    +0.000 OA
ATOM     21 C5'   DG A   2      23.543  29.175  22.594  1.00 20.00    +0.000 A 
ATOM     22 C4'   DG A   2      23.494  27.709  22.279  1.00 20.00    +0.000 A 
ATOM     23 O4'   DG A   2      22.193  27.252  22.674  1.00 20.00    +0.000 OA
ATOM     24 C3'   DG A   2      23.693  27.325  20.807  1.00 20.00    +0.000 A 
ATOM     25 O3'   DG A   2      24.723  26.320  20.653  1.00 20.00    +0.000 OA
ATOM     26 C2'   DG A   2      22.273  26.885  20.416  1.00 20.00    +0.000 A 
ATOM     27 C1'   DG A   2      21.721  26.304  21.716  1.00 20.00    +0.000 A 
ATOM     28 N9    DG A   2      20.237  26.470  21.780  1.00 20.00    +0.000 NA
ATOM     29 C8    DG A   2      19.526  27.584  21.429  1.00 20.00    +0.000 A 
ATOM     30 N7    DG A   2      18.207  27.455  21.636  1.00 20.00    +0.000 NA
ATOM     31 C5    DG A   2      18.083  26.212  22.142  1.00 20.00    +0.000 A 
ATOM     32 C6    DG A   2      16.904  25.525  22.545  1.00 20.00    +0.000 A 
ATOM     33 O6    DG A   2      15.739  25.916  22.518  1.00 20.00    +0.000 OA
ATOM     34 N1    DG A   2      17.197  24.279  23.037  1.00 20.00    +0.000 NA
ATOM     35 C2    DG A   2      18.434  23.717  23.155  1.00 20.00    +0.000 A 
ATOM     36 N2    DG A   2      18.508  22.456  23.668  1.00 20.00    +0.000 NA
ATOM     37 N3    DG A   2      19.537  24.360  22.770  1.00 20.00    +0.000 NA
ATOM     38 C4    DG A   2      19.290  25.594  22.274  1.00 20.00    +0.000 A 
ATOM     39 P     DC A   3      25.064  25.621  19.252  1.00 20.00    +1.200 P 
ATOM     40 OP1   DC A   3      26.506  25.316  19.220  1.00 20.00    -0.600 OA
ATOM     41 OP2   DC A   3      24.559  26.412  18.115  1.00 20.00    -0.600 OA
ATOM     42 O5'   DC A   3      24.260  24.246  19.327  1.00 20.00    +0.000 OA
ATOM     43 C5'   DC A   3      24.584  23.285  20.335  1.00 20.00    +0.000 A 
ATOM     44 C4'   DC A   3      23.523  22.233  20.245  1.00 20.00    +0.000 A 
ATOM     45 O4'   DC A   3      22.256  22.844  20.453  1.00 20.00    +0.000 OA
ATOM     46 C3'   DC A   3      23.424  21.557  18.903  1.00 20.00    +0.000 A 
ATOM     47 O3'   DC A   3      24.121  20.309  18.928  1.00 20.00    +0.000 OA
ATOM     48 C2'   DC A   3      21.930  21.406  18.661  1.00 20.00    +0.000 A 
ATOM     49 C1'   DC A   3      21.278  21.966  19.909  1.00 20.00    +0.000 A 
ATOM     50 N1    DC A   3      20.196  22.889  19.521  1.00 20.00    +0.000 NA
ATOM     51 C2    DC A   3      18.909  22.584  19.816  1.00 20.00    +0.000 A 
ATOM     52 O2    DC A   3      18.685  21.512  20.382  1.00 20.00    +0.000 OA
ATOM     53 N3    DC A   3      17.935  23.447  19.502  1.00 20.00    +0.000 NA
ATOM     54 C4    DC A   3      18.217  24.603  18.897  1.00 20.00    +0.000 A 
ATOM     55 N4    DC A   3      17.221  25.499  18.629  1.00 20.00    +0.000 NA
ATOM     56 C5    DC A   3      19.526  24.945  18.571  1.00 20.00    +0.000 A 
ATOM     57 C6    DC A   3      20.537  24.048  18.899  1.00 20.00    +0.000 A 
ATOM     58 P     DG A   4      24.249  19.412  17.617  1.00 20.00    +1.200 P 
ATOM     59 OP1   DG A   4      25.420  18.535  17.765  1.00 20.00    -0.600 OA
ATOM     60 OP2   DG A   4      24.208  20.296  16.440  1.00 20.00    -0.600 OA
ATOM     61 O5'   DG A   4      22.931  18.537  17.670  1.00 20.00    +0.000 OA
ATOM     62 C5'   DG A   4      22.714  17.625  18.753  1.00 20.00    +0.000 A 
ATOM     63 C4'   DG A   4      21.393  16.960  18.505  1.00 20.00    +0.000 A 
ATOM     64 O4'   DG A   4      20.353  17.952  18.496  1.00 20.00    +0.000 OA
ATOM     65 C3'   DG A   4      21.264  16.229  17.176  1.00 20.00    +0.000 A 
ATOM     66 O3'   DG A   4      20.284  15.214  17.238  1.00 20.00    +0.000 OA
ATOM     67 C2'   DG A   4      20.793  17.368  16.288  1.00 20.00    +0.000 A 
ATOM     68 C1'   DG A   4      19.716  17.901  17.218  1.00 20.00    +0.000 A 
ATOM     69 N9    DG A   4      19.305  19.281  16.869  1.00 20.00    +0.000 NA
ATOM     70 C8    DG A   4      20.017  20.263  16.232  1.00 20.00    +0.000 A 
ATOM     71 N7    DG A   4      19.313  21.394  16.077  1.00 20.00    +0.000 NA
ATOM     72 C5    DG A   4      18.121  21.100  16.635  1.00 20.00    +0.000 A 
ATOM     73 C6    DG A   4      16.952  21.904  16.749  1.00 20.00    +0.000 A 
ATOM     74 O6    DG A   4      16.769  23.057  16.368  1.00 20.00    +0.000 OA
ATOM     75 N1    DG A   4      15.933  21.214  17.352  1.00 20.00    +0.000 NA
ATOM     76 C2    DG A   4      15.972  19.930  17.816  1.00 20.00    +0.000 A 
ATOM     77 N2    DG A   4      14.831  19.416  18.353  1.00 20.00    +0.000 NA
ATOM     78 N3    DG A   4      17.068  19.179  17.717  1.00 20.00    +0.000 NA
ATOM     79 C4    DG A   4      18.084  19.825  17.121  1.00 20.00    +0.000 A 
ATOM     80 P     DA A   5      20.356  13.969  16.245  1.00 20.00    +1.200 P 
ATOM     81 OP1   DA A   5      21.116  12.891  16.892  1.00 20.00    -0.600 OA
ATOM     82 OP2   DA A   5      20.837  14.423  14.910  1.00 20.00    -0.600 OA
ATOM     83 O5'   DA A   5      18.810  13.581  16.161  1.00 20.00    +0.000 OA
ATOM     84 C5'   DA A   5      18.015  13.569  17.362  1.00 20.00    +0.000 A 
ATOM     85 C4'   DA A   5      16.672  14.088  16.957  1.00 20.00    +0.000 A 
ATOM     86 O4'   DA A   5      16.842  15.447  16.561  1.00 20.00    +0.000 OA
ATOM     87 C3'   DA A   5      16.019  13.393  15.764  1.00 20.00    +0.000 A 
ATOM     88 O3'   DA A   5      14.762  12.796  16.120  1.00 20.00    +0.000 OA
ATOM     89 C2'   DA A   5      15.952  14.498  14.696  1.00 20.00    +0.000 A 
ATOM     90 C1'   DA A   5      15.851  15.732  15.569  1.00 20.00    +0.000 A 
ATOM     91 N9    DA A   5      16.391  16.916  14.867  1.00 20.00    +0.000 NA
ATOM     92 C8    DA A   5      17.658  17.103  14.382  1.00 20.00    +0.000 A 
ATOM     93 N7    DA A   5      17.863  18.346  13.913  1.00 20.00    +0.000 NA
ATOM     94 C5    DA A   5      16.673  18.953  14.098  1.00 20.00    +0.000 A 
ATOM     95 C6    DA A   5      16.230  20.279  13.819  1.00 20.00    +0.000 A 
ATOM     96 N6    DA A   5      17.045  21.222  13.268  1.00 20.00    +0.000 NA
ATOM     97 N1    DA A   5      14.966  20.578  14.118  1.00 20.00    +0.000 NA
ATOM     98 C2    DA A   5      14.178  19.652  14.669  1.00 20.00    +0.000 A 
ATOM     99 N3    DA A   5      14.463  18.392  14.984  1.00 20.00    +0.000 NA
ATOM    100 C4    DA A   5      15.750  18.110  14.661  1.00 20.00    +0.000 A 
ATOM    101 P     DA A   6      13.866  12.006  15.063  1.00 20.00    +1.200 P 
ATOM    102 OP1   DA A   6      13.028  11.039  15.800  1.00 20.00    -0.600 OA
ATOM    103 OP2   DA A   6      14.715  11.499  13.968  1.00 20.00    -0.600 OA
ATOM    104 O5'   DA A   6      12.879  13.111  14.480  1.00 20.00    +0.000 OA
ATOM    105 C5'   DA A   6      11.802  13.597  15.290  1.00 20.00    +0.000 A 
ATOM    106 C4'   DA A   6      11.111  14.603  14.435  1.00 20.00    +0.000 A 
ATOM    107 O4'   DA A   6      12.152  15.460  13.962  1.00 20.00    +0.000 OA
ATOM    108 C3'   DA A   6      10.417  14.070  13.187  1.00 20.00    +0.000 A 
ATOM    109 O3'   DA A   6       9.007  14.369  13.181  1.00 20.00    +0.000 OA
ATOM    110 C2'   DA A   6      11.240  14.692  12.061  1.00 20.00    +0.000 A 
ATOM    111 C1'   DA A   6      11.699  15.974  12.719  1.00 20.00    +0.000 A 
ATOM    112 N9    DA A   6      12.918  16.526  12.078  1.00 20.00    +0.000 NA
ATOM    113 C8    DA A   6      14.115  15.899  11.868  1.00 20.00    +0.000 A 
ATOM    114 N7    DA A   6      15.049  16.714  11.356  1.00 20.00    +0.000 NA
ATOM    115 C5    DA A   6      14.416  17.901  11.246  1.00 20.00    +0.000 A 
ATOM    116 C6    DA A   6      14.873  19.187  10.815  1.00 20.00    +0.000 A 
ATOM    117 N6    DA A   6      16.161  19.418  10.427  1.00 20.00    +0.000 NA
ATOM    118 N1    DA A   6      13.999  20.191  10.852  1.00 20.00    +0.000 NA
ATOM    119 C2    DA A   6      12.753  19.962  11.272  1.00 20.00    +0.000 A 
ATOM    120 N3    DA A   6      12.210  18.824  11.698  1.00 20.00    +0.000 NA
ATOM    121 C4    DA A   6      13.116  17.823  11.657  1.00 20.00    +0.000 A 
ATOM    122 P     DT A   7       8.081  14.050  11.915  1.00 20.00    +1.200 P 
ATOM    123 OP1   DT A   7       6.668  13.960  12.342  1.00 20.00    -0.600 OA
ATOM    124 OP2   DT A   7       8.600  12.894  11.137  1.00 20.00    -0.600 OA
ATOM    125 O5'   DT A   7       8.239  15.387  11.076  1.00 20.00    +0.000 OA
ATOM    126 C5'   DT A   7       7.907  16.635  11.686  1.00 20.00    +0.000 A 
ATOM    127 C4'   DT A   7       8.162  17.628  10.598  1.00 20.00    +0.000 A 
ATOM    128 O4'   DT A   7       9.543  17.580  10.279  1.00 20.00    +0.000 OA
ATOM    129 C3'   DT A   7       7.461  17.284   9.296  1.00 20.00    +0.000 A 
ATOM    130 O3'   DT A   7       6.251  18.034   9.162  1.00 20.00    +0.000 OA
ATOM    131 C2'   DT A   7       8.532  17.527   8.223  1.00 20.00    +0.000 A 
ATOM    132 C1'   DT A   7       9.644  18.209   9.019  1.00 20.00    +0.000 A 
ATOM    133 N1    DT A   7      11.021  17.903   8.565  1.00 20.00    +0.000 NA
ATOM    134 C2    DT A   7      11.822  18.923   8.176  1.00 20.00    +0.000 A 
ATOM    135 O2    DT A   7      11.383  20.077   8.143  1.00 20.00    +0.000 OA
ATOM    136 N3    DT A   7      13.119  18.641   7.852  1.00 20.00    +0.000 NA
ATOM    137 C4    DT A   7      13.633  17.372   7.882  1.00 20.00    +0.000 A 
ATOM    138 O4    DT A   7      14.830  17.222   7.619  1.00 20.00    +0.000 OA
ATOM    139 C5    DT A   7      12.781  16.325   8.235  1.00 20.00    +0.000 A 
ATOM    140 C7    DT A   7      13.269  14.902   8.236  1.00 20.00    +0.000 A 
ATOM    141 C6    DT A   7      11.465  16.616   8.594  1.00 20.00    +0.000 A 
ATOM    142 P     DT A   8       5.384  17.990   7.824  1.00 20.00    +1.200 P 
ATOM    143 OP1   DT A   8       4.025  18.444   8.180  1.00 20.00    -0.600 OA
ATOM    144 OP2   DT A   8       5.458  16.668   7.160  1.00 20.00    -0.600 OA
ATOM    145 O5'   DT A   8       6.086  19.118   6.927  1.00 20.00    +0.000 OA
ATOM    146 C5'   DT A   8       6.146  20.478   7.418  1.00 20.00    +0.000 A 
ATOM    147 C4'   DT A   8       6.995  21.229   6.438  1.00 20.00    +0.000 A 
ATOM    148 O4'   DT A   8       8.188  20.458   6.284  1.00 20.00    +0.000 OA
ATOM    149 C3'   DT A   8       6.418  21.332   5.029  1.00 20.00    +0.000 A 
ATOM    150 O3'   DT A   8       5.967  22.667   4.696  1.00 20.00    +0.000 OA
ATOM    151 C2'   DT A   8       7.513  20.718   4.139  1.00 20.00    +0.000 A 
ATOM    152 C1'   DT A   8       8.736  20.855   5.034  1.00 20.00    +0.000 A 
ATOM    153 N1    DT A   8       9.823  19.876   4.759  1.00 20.00    +0.000 NA
ATOM    154 C2    DT A   8      11.086  20.316   4.494  1.00 20.00    +0.000 A 
ATOM    155 O2    DT A   8      11.324  21.516   4.389  1.00 20.00    +0.000 OA
ATOM    156 N3    DT A   8      12.094  19.403   4.412  1.00 20.00    +0.000 NA
ATOM    157 C4    DT A   8      11.876  18.060   4.551  1.00 20.00    +0.000 A 
ATOM    158 O4    DT A   8      12.858  17.317   4.503  1.00 20.00    +0.000 OA
ATOM    159 C5    DT A   8      10.569  17.611   4.765  1.00 20.00    +0.000 A 
ATOM    160 C7    DT A   8      10.261  16.140   4.896  1.00 20.00    +0.000 A 
ATOM    161 C6    DT A   8       9.545  18.548   4.904  1.00 20.00    +0.000 A 
ATOM    162 P     DC A   9       5.531  23.071   3.209  1.00 20.00    +1.200 P 
ATOM    163 OP1   DC A   9       4.648  24.244   3.269  1.00 20.00    -0.600 OA
ATOM    164 OP2   DC A   9       5.010  21.905   2.470  1.00 20.00    -0.600 OA
ATOM    165 O5'   DC A   9       6.926  23.547   2.611  1.00 20.00    +0.000 OA
ATOM    166 C5'   DC A   9       7.636  24.627   3.249  1.00 20.00    +0.000 A 
ATOM    167 C4'   DC A   9       8.897  24.853   2.457  1.00 20.00    +0.000 A 
ATOM    168 O4'   DC A   9       9.638  23.627   2.448  1.00 20.00    +0.000 OA
ATOM    169 C3'   DC A   9       8.717  25.240   0.998  1.00 20.00    +0.000 A 
ATOM    170 O3'   DC A   9       9.470  26.414   0.667  1.00 20.00    +0.000 OA
ATOM    171 C2'   DC A   9       9.126  23.965   0.253  1.00 20.00    +0.000 A 
ATOM    172 C1'   DC A   9      10.241  23.483   1.157  1.00 20.00    +0.000 A 
ATOM    173 N1    DC A   9      10.524  22.022   1.015  1.00 20.00    +0.000 NA
ATOM    174 C2    DC A   9      11.814  21.603   0.840  1.00 20.00    +0.000 A 
ATOM    175 O2    DC A   9      12.691  22.447   0.670  1.00 20.00    +0.000 OA
ATOM    176 N3    DC A   9      12.106  20.297   0.873  1.00 20.00    +0.000 NA
ATOM    177 C4    DC A   9      11.141  19.395   1.046  1.00 20.00    +0.000 A 
ATOM    178 N4    DC A   9      11.461  18.075   1.089  1.00 20.00    +0.000 NA
ATOM    179 C5    DC A   9       9.803  19.775   1.177  1.00 20.00    +0.000 A 
ATOM    180 C6    DC A   9       9.499  21.133   1.167  1.00 20.00    +0.000 A 
ATOM    181 P     DG A  10       9.055  27.333  -0.581  1.00 20.00    +1.200 P 
ATOM    182 OP1   DG A  10       9.496  28.717  -0.258  1.00 20.00    -0.600 OA
ATOM    183 OP2   DG A  10       7.632  27.106  -0.947  1.00 20.00    -0.600 OA
ATOM    184 O5'   DG A  10       9.954  26.765  -1.771  1.00 20.00    +0.000 OA
ATOM    185 C5'   DG A  10      11.382  26.940  -1.720  1.00 20.00    +0.000 A 
ATOM    186 C4'   DG A  10      11.972  26.090  -2.802  1.00 20.00    +0.000 A 
ATOM    187 O4'   DG A  10      11.802  24.724  -2.404  1.00 20.00    +0.000 OA
ATOM    188 C3'   DG A  10      11.327  26.178  -4.188  1.00 20.00    +0.000 A 
ATOM    189 O3'   DG A  10      12.311  26.096  -5.214  1.00 20.00    +0.000 OA
ATOM    190 C2'   DG A  10      10.414  24.962  -4.186  1.00 20.00    +0.000 A 
ATOM    191 C1'   DG A  10      11.429  24.028  -3.587  1.00 20.00    +0.000 A 
ATOM    192 N9    DG A  10      10.890  22.713  -3.200  1.00 20.00    +0.000 NA
ATOM    193 C8    DG A  10       9.616  22.315  -2.910  1.00 20.00    +0.000 A 
ATOM    194 N7    DG A  10       9.541  21.009  -2.613  1.00 20.00    +0.000 NA
ATOM    195 C5    DG A  10      10.818  20.588  -2.718  1.00 20.00    +0.000 A 
ATOM    196 C6    DG A  10      11.376  19.292  -2.511  1.00 20.00    +0.000 A 
ATOM    197 O6    DG A  10      10.813  18.252  -2.179  1.00 20.00    +0.000 OA
ATOM    198 N1    DG A  10      12.729  19.299  -2.720  1.00 20.00    +0.000 NA
ATOM    199 C2    DG A  10      13.498  20.365  -3.082  1.00 20.00    +0.000 A 
ATOM    200 N2    DG A  10      14.834  20.169  -3.237  1.00 20.00    +0.000 NA
ATOM    201 N3    DG A  10      12.982  21.573  -3.267  1.00 20.00    +0.000 NA
ATOM    202 C4    DG A  10      11.656  21.601  -3.061  1.00 20.00    +0.000 A 
ATOM    203 P     DC A  11      12.763  27.421  -5.980  1.00 20.00    +1.200 P 
ATOM    204 OP1   DC A  11      12.796  28.572  -5.049  1.00 20.00    -0.600 OA
ATOM    205 OP2   DC A  11      11.886  27.542  -7.164  1.00 20.00    -0.600 OA
ATOM    206 O5'   DC A  11      14.272  27.086  -6.366  1.00 20.00    +0.000 OA
ATOM    207 C5'   DC A  11      15.275  27.108  -5.318  1.00 20.00    +0.000 A 
ATOM    208 C4'   DC A  11      16.222  25.946  -5.510  1.00 20.00    +0.000 A 
ATOM    209 O4'   DC A  11      15.443  24.754  -5.397  1.00 20.00    +0.000 OA
ATOM    210 C3'   DC A  11      16.942  25.827  -6.848  1.00 20.00    +0.000 A 
ATOM    211 O3'   DC A  11      18.340  25.511  -6.701  1.00 20.00    +0.000 OA
ATOM    212 C2'   DC A  11      16.118  24.767  -7.578  1.00 20.00    +0.000 A 
ATOM    213 C1'   DC A  11      15.856  23.836  -6.414  1.00 20.00    +0.000 A 
ATOM    214 N1    DC A  11      14.672  22.975  -6.637  1.00 20.00    +0.000 NA
ATOM    215 C2    DC A  11      14.802  21.628  -6.529  1.00 20.00    +0.000 A 
ATOM    216 O2    DC A  11      15.924  21.178  -6.314  1.00 20.00    +0.000 OA
ATOM    217 N3    DC A  11      13.723  20.842  -6.627  1.00 20.00    +0.000 NA
ATOM    218 C4    DC A  11      12.515  21.373  -6.836  1.00 20.00    +0.000 A 
ATOM    219 N4    DC A  11      11.410  20.574  -6.872  1.00 20.00    +0.000 NA
ATOM    220 C5    DC A  11      12.348  22.744  -6.978  1.00 20.00    +0.000 A 
ATOM    221 C6    DC A  11      13.470  23.558  -6.869  1.00 20.00    +0.000 A 
ATOM    222 P     DG A  12      19.331  25.774  -7.925  1.00 20.00    +1.200 P 
ATOM    223 OP1   DG A  12      20.704  25.976  -7.408  1.00 20.00    -0.600 OA
ATOM    224 OP2   DG A  12      18.763  26.851  -8.758  1.00 20.00    -0.600 OA
ATOM    225 O5'   DG A  12      19.302  24.412  -8.763  1.00 20.00    +0.000 OA
ATOM    226 C5'   DG A  12      20.109  23.284  -8.359  1.00 20.00    +0.000 A 
ATOM    227 C4'   DG A  12      19.748  22.167  -9.299  1.00 20.00    +0.000 A 
ATOM    228 O4'   DG A  12      18.350  21.969  -9.139  1.00 20.00    +0.000 OA
ATOM    229 C3'   DG A  12      19.921  22.404 -10.815  1.00 20.00    +0.000 A 
ATOM    230 O3'   DG A  12      20.985  21.635 -11.401  1.00 20.00    +0.000 OA
ATOM    231 C2'   DG A  12      18.535  22.062 -11.381  1.00 20.00    +0.000 A 
ATOM    232 C1'   DG A  12      17.965  21.200 -10.269  1.00 20.00    +0.000 A 
ATOM    233 N9    DG A  12      16.493  21.220 -10.265  1.00 20.00    +0.000 NA
ATOM    234 C8    DG A  12      15.663  22.289 -10.478  1.00 20.00    +0.000 A 
ATOM    235 N7    DG A  12      14.368  21.958 -10.390  1.00 20.00    +0.000 NA
ATOM    236 C5    DG A  12      14.388  20.640 -10.102  1.00 20.00    +0.000 A 
ATOM    237 C6    DG A  12      13.301  19.742  -9.856  1.00 20.00    +0.000 A 
ATOM    238 O6    DG A  12      12.091  19.967  -9.857  1.00 20.00    +0.000 OA
ATOM    239 N1    DG A  12      13.750  18.466  -9.625  1.00 20.00    +0.000 NA
ATOM    240 C2    DG A  12      15.042  18.043  -9.605  1.00 20.00    +0.000 A 
ATOM    241 N2    DG A  12      15.259  16.717  -9.406  1.00 20.00    +0.000 NA
ATOM    242 N3    DG A  12      16.061  18.885  -9.792  1.00 20.00    +0.000 NA
ATOM    243 C4    DG A  12      15.660  20.156 -10.027  1.00 20.00    +0.000 A 
ATOM    245 O5'   DC B  13       7.458  11.884  -9.070  1.00 20.00    +0.000 OA
ATOM    246 C5'   DC B  13       8.252  10.968  -9.854  1.00 20.00    +0.000 A 
ATOM    247 C4'   DC B  13       9.714  11.141  -9.512  1.00 20.00    +0.000 A 
ATOM    248 O4'   DC B  13      10.144  12.455  -9.908  1.00 20.00    +0.000 OA
ATOM    249 C3'   DC B  13      10.103  10.989  -8.055  1.00 20.00    +0.000 A 
ATOM    250 O3'   DC B  13      11.293  10.221  -7.904  1.00 20.00    +0.000 OA
ATOM    251 C2'   DC B  13      10.254  12.437  -7.607  1.00 20.00    +0.000 A 
ATOM    252 C1'   DC B  13      10.896  13.044  -8.837  1.00 20.00    +0.000 A 
ATOM    253 N1    DC B  13      10.575  14.487  -8.944  1.00 20.00    +0.000 NA
ATOM    254 C2    DC B  13      11.559  15.430  -9.006  1.00 20.00    +0.000 A 
ATOM    255 O2    DC B  13      12.725  15.066  -8.932  1.00 20.00    +0.000 OA
ATOM    256 N3    DC B  13      11.246  16.714  -9.193  1.00 20.00    +0.000 NA
ATOM    257 C4    DC B  13       9.980  17.088  -9.334  1.00 20.00    +0.000 A 
ATOM    258 N4    DC B  13       9.698  18.395  -9.589  1.00 20.00    +0.000 NA
ATOM    259 C5    DC B  13       8.939  16.162  -9.274  1.00 20.00    +0.000 A 
ATOM    260 C6    DC B  13       9.265  14.824  -9.080  1.00 20.00    +0.000 A 
ATOM    261 P     DG B  14      11.602   9.510  -6.502  1.00 20.00    +1.200 P 
ATOM    262 OP1   DG B  14      11.666   8.032  -6.664  1.00 20.00    -0.600 OA
ATOM    263 OP2   DG B  14      10.644  10.010  -5.494  1.00 20.00    -0.600 OA
ATOM    264 O5'   DG B  14      13.051  10.094  -6.177  1.00 20.00    +0.000 OA
ATOM    265 C5'   DG B  14      14.100  10.021  -7.156  1.00 20.00    +0.000 A 
ATOM    266 C4'   DG B  14      15.113  10.992  -6.657  1.00 20.00    +0.000 A 
ATOM    267 O4'   DG B  14      14.556  12.300  -6.755  1.00 20.00    +0.000 OA
ATOM    268 C3'   DG B  14      15.445  10.806  -5.189  1.00 20.00    +0.000 A 
ATOM    269 O3'   DG B  14      16.836  10.560  -5.013  1.00 20.00    +0.000 OA
ATOM    270 C2'   DG B  14      14.937  12.100  -4.529  1.00 20.00    +0.000 A 
ATOM    271 C1'   DG B  14      15.058  13.086  -5.671  1.00 20.00    +0.000 A 
ATOM    272 N9    DG B  14      14.036  14.140  -5.536  1.00 20.00    +0.000 NA
ATOM    273 C8    DG B  14      12.710  13.957  -5.259  1.00 20.00    +0.000 A 
ATOM    274 N7    DG B  14      12.016  15.103  -5.269  1.00 20.00    +0.000 NA
ATOM    275 C5    DG B  14      12.937  16.041  -5.558  1.00 20.00    +0.000 A 
ATOM    276 C6    DG B  14      12.761  17.451  -5.710  1.00 20.00    +0.000 A 
ATOM    277 O6    DG B  14      11.723  18.111  -5.630  1.00 20.00    +0.000 OA
ATOM    278 N1    DG B  14      13.952  18.079  -5.973  1.00 20.00    +0.000 NA
ATOM    279 C2    DG B  14      15.171  17.485  -6.107  1.00 20.00    +0.000 A 
ATOM    280 N2    DG B  14      16.244  18.292  -6.325  1.00 20.00    +0.000 NA
ATOM    281 N3    DG B  14      15.329  16.161  -5.986  1.00 20.00    +0.000 NA
ATOM    282 C4    DG B  14      14.179  15.499  -5.721  1.00 20.00    +0.000 A 
ATOM    283 P     DC B  15      17.478  10.380  -3.569  1.00 20.00    +1.200 P 
ATOM    284 OP1   DC B  15      18.665   9.516  -3.729  1.00 20.00    -0.600 OA
ATOM    285 OP2   DC B  15      16.427   9.940  -2.633  1.00 20.00    -0.600 OA
ATOM    286 O5'   DC B  15      17.957  11.865  -3.208  1.00 20.00    +0.000 OA
ATOM    287 C5'   DC B  15      18.963  12.531  -3.996  1.00 20.00    +0.000 A 
ATOM    288 C4'   DC B  15      18.936  13.958  -3.536  1.00 20.00    +0.000 A 
ATOM    289 O4'   DC B  15      17.592  14.409  -3.622  1.00 20.00    +0.000 OA
ATOM    290 C3'   DC B  15      19.253  14.139  -2.066  1.00 20.00    +0.000 A 
ATOM    291 O3'   DC B  15      20.659  14.219  -1.858  1.00 20.00    +0.000 OA
ATOM    292 C2'   DC B  15      18.520  15.417  -1.728  1.00 20.00    +0.000 A 
ATOM    293 C1'   DC B  15      17.545  15.602  -2.872  1.00 20.00    +0.000 A 
ATOM    294 N1    DC B  15      16.145  15.696  -2.428  1.00 20.00    +0.000 NA
ATOM    295 C2    DC B  15      15.507  16.886  -2.558  1.00 20.00    +0.000 A 
ATOM    296 O2    DC B  15      16.162  17.846  -2.957  1.00 20.00    +0.000 OA
ATOM    297 N3    DC B  15      14.209  16.983  -2.264  1.00 20.00    +0.000 NA
ATOM    298 C4    DC B  15      13.536  15.919  -1.825  1.00 20.00    +0.000 A 
ATOM    299 N4    DC B  15      12.205  16.017  -1.553  1.00 20.00    +0.000 NA
ATOM    300 C5    DC B  15      14.164  14.689  -1.652  1.00 20.00    +0.000 A 
ATOM    301 C6    DC B  15      15.509  14.584  -1.979  1.00 20.00    +0.000 A 
ATOM    302 P     DG B  16      21.304  14.529  -0.436  1.00 20.00    +1.200 P 
ATOM    303 OP1   DG B  16      22.696  14.087  -0.524  1.00 20.00    -0.600 OA
ATOM    304 OP2   DG B  16      20.488  13.954   0.650  1.00 20.00    -0.600 OA
ATOM    305 O5'   DG B  16      21.306  16.117  -0.363  1.00 20.00    +0.000 OA
ATOM    306 C5'   DG B  16      22.177  16.876  -1.212  1.00 20.00    +0.000 A 
ATOM    307 C4'   DG B  16      21.739  18.292  -1.021  1.00 20.00    +0.000 A 
ATOM    308 O4'   DG B  16      20.305  18.225  -1.048  1.00 20.00    +0.000 OA
ATOM    309 C3'   DG B  16      22.101  18.959   0.293  1.00 20.00    +0.000 A 
ATOM    310 O3'   DG B  16      22.592  20.293   0.097  1.00 20.00    +0.000 OA
ATOM    311 C2'   DG B  16      20.820  18.829   1.121  1.00 20.00    +0.000 A 
ATOM    312 C1'   DG B  16      19.765  18.985   0.046  1.00 20.00    +0.000 A 
ATOM    313 N9    DG B  16      18.513  18.299   0.468  1.00 20.00    +0.000 NA
ATOM    314 C8    DG B  16      18.363  17.062   1.039  1.00 20.00    +0.000 A 
ATOM    315 N7    DG B  16      17.080  16.744   1.281  1.00 20.00    +0.000 NA
ATOM    316 C5    DG B  16      16.400  17.832   0.868  1.00 20.00    +0.000 A 
ATOM    317 C6    DG B  16      14.996  18.090   0.882  1.00 20.00    +0.000 A 
ATOM    318 O6    DG B  16      14.082  17.378   1.280  1.00 20.00    +0.000 OA
ATOM    319 N1    DG B  16      14.712  19.349   0.418  1.00 20.00    +0.000 NA
ATOM    320 C2    DG B  16      15.606  20.268  -0.027  1.00 20.00    +0.000 A 
ATOM    321 N2    DG B  16      15.134  21.493  -0.382  1.00 20.00    +0.000 NA
ATOM    322 N3    DG B  16      16.912  20.017  -0.072  1.00 20.00    +0.000 NA
ATOM    323 C4    DG B  16      17.236  18.794   0.384  1.00 20.00    +0.000 A 
ATOM    324 P     DA B  17      22.904  21.238   1.339  1.00 20.00    +1.200 P 
ATOM    325 OP1   DA B  17      23.994  22.183   1.025  1.00 20.00    -0.600 OA
ATOM    326 OP2   DA B  17      23.104  20.390   2.538  1.00 20.00    -0.600 OA
ATOM    327 O5'   DA B  17      21.577  22.107   1.390  1.00 20.00    +0.000 OA
ATOM    328 C5'   DA B  17      21.216  22.833   0.200  1.00 20.00    +0.000 A 
ATOM    329 C4'   DA B  17      20.101  23.788   0.484  1.00 20.00    +0.000 A 
ATOM    330 O4'   DA B  17      18.913  23.054   0.816  1.00 20.00    +0.000 OA
ATOM    331 C3'   DA B  17      20.347  24.743   1.633  1.00 20.00    +0.000 A 
ATOM    332 O3'   DA B  17      19.732  26.010   1.411  1.00 20.00    +0.000 OA
ATOM    333 C2'   DA B  17      19.752  23.945   2.791  1.00 20.00    +0.000 A 
ATOM    334 C1'   DA B  17      18.497  23.393   2.145  1.00 20.00    +0.000 A 
ATOM    335 N9    DA B  17      18.079  22.095   2.758  1.00 20.00    +0.000 NA
ATOM    336 C8    DA B  17      18.847  21.020   3.133  1.00 20.00    +0.000 A 
ATOM    337 N7    DA B  17      18.114  19.984   3.584  1.00 20.00    +0.000 NA
ATOM    338 C5    DA B  17      16.842  20.424   3.488  1.00 20.00    +0.000 A 
ATOM    339 C6    DA B  17      15.577  19.817   3.786  1.00 20.00    +0.000 A 
ATOM    340 N6    DA B  17      15.448  18.537   4.242  1.00 20.00    +0.000 NA
ATOM    341 N1    DA B  17      14.482  20.557   3.593  1.00 20.00    +0.000 NA
ATOM    342 C2    DA B  17      14.597  21.801   3.118  1.00 20.00    +0.000 A 
ATOM    343 N3    DA B  17      15.700  22.472   2.783  1.00 20.00    +0.000 NA
ATOM    344 C4    DA B  17      16.791  21.706   3.002  1.00 20.00    +0.000 A 
ATOM    345 P     DA B  18      19.803  27.141   2.526  1.00 20.00    +1.200 P 
ATOM    346 OP1   DA B  18      19.796  28.478   1.888  1.00 20.00    -0.600 OA
ATOM    347 OP2   DA B  18      20.953  26.858   3.426  1.00 20.00    -0.600 OA
ATOM    348 O5'   DA B  18      18.396  26.939   3.241  1.00 20.00    +0.000 OA
ATOM    349 C5'   DA B  18      17.203  27.028   2.452  1.00 20.00    +0.000 A 
ATOM    350 C4'   DA B  18      16.035  26.958   3.388  1.00 20.00    +0.000 A 
ATOM    351 O4'   DA B  18      15.856  25.612   3.850  1.00 20.00    +0.000 OA
ATOM    352 C3'   DA B  18      16.101  27.861   4.615  1.00 20.00    +0.000 A 
ATOM    353 O3'   DA B  18      14.890  28.608   4.757  1.00 20.00    +0.000 OA
ATOM    354 C2'   DA B  18      16.368  26.844   5.724  1.00 20.00    +0.000 A 
ATOM    355 C1'   DA B  18      15.561  25.655   5.243  1.00 20.00    +0.000 A 
ATOM    356 N9    DA B  18      16.104  24.373   5.755  1.00 20.00    +0.000 NA
ATOM    357 C8    DA B  18      17.411  23.967   5.830  1.00 20.00    +0.000 A 
ATOM    358 N7    DA B  18      17.539  22.706   6.276  1.00 20.00    +0.000 NA
ATOM    359 C5    DA B  18      16.266  22.309   6.480  1.00 20.00    +0.000 A 
ATOM    360 C6    DA B  18      15.715  21.073   6.933  1.00 20.00    +0.000 A 
ATOM    361 N6    DA B  18      16.483  19.994   7.243  1.00 20.00    +0.000 NA
ATOM    362 N1    DA B  18      14.389  20.994   7.036  1.00 20.00    +0.000 NA
ATOM    363 C2    DA B  18      13.636  22.041   6.708  1.00 20.00    +0.000 A 
ATOM    364 N3    DA B  18      14.019  23.234   6.265  1.00 20.00    +0.000 NA
ATOM    365 C4    DA B  18      15.367  23.291   6.174  1.00 20.00    +0.000 A 
ATOM    366 P     DT B  19      14.604  29.545   6.020  1.00 20.00    +1.200 P 
ATOM    367 OP1   DT B  19      13.792  30.696   5.582  1.00 20.00    -0.600 OA
ATOM    368 OP2   DT B  19      15.852  29.836   6.749  1.00 20.00    -0.600 OA
ATOM    369 O5'   DT B  19      13.633  28.628   6.885  1.00 20.00    +0.000 OA
ATOM    370 C5'   DT B  19      12.398  28.171   6.303  1.00 20.00    +0.000 A 
ATOM    371 C4'   DT B  19      11.809  27.217   7.302  1.00 20.00    +0.000 A 
ATOM    372 O4'   DT B  19      12.767  26.184   7.534  1.00 20.00    +0.000 OA
ATOM    373 C3'   DT B  19      11.515  27.822   8.669  1.00 20.00    +0.000 A 
ATOM    374 O3'   DT B  19      10.103  27.952   8.891  1.00 20.00    +0.000 OA
ATOM    375 C2'   DT B  19      12.267  26.906   9.630  1.00 20.00    +0.000 A 
ATOM    376 C1'   DT B  19      12.426  25.645   8.799  1.00 20.00    +0.000 A 
ATOM    377 N1    DT B  19      13.609  24.850   9.205  1.00 20.00    +0.000 NA
ATOM    378 C2    DT B  19      13.442  23.575   9.656  1.00 20.00    +0.000 A 
ATOM    379 O2    DT B  19      12.311  23.101   9.802  1.00 20.00    +0.000 OA
ATOM    380 N3    DT B  19      14.551  22.825   9.913  1.00 20.00    +0.000 NA
ATOM    381 C4    DT B  19      15.815  23.321   9.777  1.00 20.00    +0.000 A 
ATOM    382 O4    DT B  19      16.755  22.570  10.029  1.00 20.00    +0.000 OA
ATOM    383 C5    DT B  19      15.972  24.647   9.362  1.00 20.00    +0.000 A 
ATOM    384 C7    DT B  19      17.345  25.239   9.234  1.00 20.00    +0.000 A 
ATOM    385 C6    DT B  19      14.844  25.405   9.048  1.00 20.00    +0.000 A 
ATOM    386 P     DT B  20       9.513  28.533  10.260  1.00 20.00    +1.200 P 
ATOM    387 OP1   DT B  20       8.145  29.007   9.998  1.00 20.00    -0.600 OA
ATOM    388 OP2   DT B  20      10.455  29.513  10.841  1.00 20.00    -0.600 OA
ATOM    389 O5'   DT B  20       9.395  27.223  11.153  1.00 20.00    +0.000 OA
ATOM    390 C5'   DT B  20       8.576  26.148  10.664  1.00 20.00    +0.000 A 
ATOM    391 C4'   DT B  20       8.655  25.060  11.678  1.00 20.00    +0.000 A 
ATOM    392 O4'   DT B  20      10.003  24.615  11.764  1.00 20.00    +0.000 OA
ATOM    393 C3'   DT B  20       8.272  25.471  13.087  1.00 20.00    +0.000 A 
ATOM    394 O3'   DT B  20       7.199  24.657  13.553  1.00 20.00    +0.000 OA
ATOM    395 C2'   DT B  20       9.586  25.307  13.860  1.00 20.00    +0.000 A 
ATOM    396 C1'   DT B  20      10.190  24.148  13.089  1.00 20.00    +0.000 A 
ATOM    397 N1    DT B  20      11.660  24.070  13.205  1.00 20.00    +0.000 NA
ATOM    398 C2    DT B  20      12.257  22.880  13.486  1.00 20.00    +0.000 A 
ATOM    399 O2    DT B  20      11.583  21.866  13.691  1.00 20.00    +0.000 OA
ATOM    400 N3    DT B  20      13.620  22.829  13.497  1.00 20.00    +0.000 NA
ATOM    401 C4    DT B  20      14.402  23.914  13.225  1.00 20.00    +0.000 A 
ATOM    402 O4    DT B  20      15.625  23.764  13.252  1.00 20.00    +0.000 OA
ATOM    403 C5    DT B  20      13.774  25.126  12.933  1.00 20.00    +0.000 A 
ATOM    404 C7    DT B  20      14.563  26.358  12.612  1.00 20.00    +0.000 A 
ATOM    405 C6    DT B  20      12.385  25.187  12.926  1.00 20.00    +0.000 A 
ATOM    406 P     DC B  21       6.594  24.823  15.016  1.00 20.00    +1.200 P 
ATOM    407 OP1   DC B  21       5.169  24.424  14.987  1.00 20.00    -0.600 OA
ATOM    408 OP2   DC B  21       6.870  26.189  15.511  1.00 20.00    -0.600 OA
ATOM    409 O5'   DC B  21       7.409  23.731  15.839  1.00 20.00    +0.000 OA
ATOM    410 C5'   DC B  21       7.331  22.352  15.433  1.00 20.00    +0.000 A 
ATOM    411 C4'   DC B  21       8.100  21.598  16.461  1.00 20.00    +0.000 A 
ATOM    412 O4'   DC B  21       9.478  21.902  16.263  1.00 20.00    +0.000 OA
ATOM    413 C3'   DC B  21       7.766  22.045  17.879  1.00 20.00    +0.000 A 
ATOM    414 O3'   DC B  21       7.036  21.041  18.611  1.00 20.00    +0.000 OA
ATOM    415 C2'   DC B  21       9.123  22.414  18.469  1.00 20.00    +0.000 A 
ATOM    416 C1'   DC B  21      10.107  21.743  17.523  1.00 20.00    +0.000 A 
ATOM    417 N1    DC B  21      11.328  22.556  17.331  1.00 20.00    +0.000 NA
ATOM    418 C2    DC B  21      12.534  21.939  17.329  1.00 20.00    +0.000 A 
ATOM    419 O2    DC B  21      12.560  20.731  17.579  1.00 20.00    +0.000 OA
ATOM    420 N3    DC B  21      13.639  22.639  17.035  1.00 20.00    +0.000 NA
ATOM    421 C4    DC B  21      13.560  23.938  16.739  1.00 20.00    +0.000 A 
ATOM    422 N4    DC B  21      14.685  24.628  16.404  1.00 20.00    +0.000 NA
ATOM    423 C5    DC B  21      12.338  24.609  16.736  1.00 20.00    +0.000 A 
ATOM    424 C6    DC B  21      11.193  23.878  17.035  1.00 20.00    +0.000 A 
ATOM    425 P     DG B  22       6.509  21.324  20.099  1.00 20.00    +1.200 P 
ATOM    426 OP1   DG B  22       5.387  20.397  20.396  1.00 20.00    -0.600 OA
ATOM    427 OP2   DG B  22       6.235  22.774  20.306  1.00 20.00    -0.600 OA
ATOM    428 O5'   DG B  22       7.767  20.924  20.993  1.00 20.00    +0.000 OA
ATOM    429 C5'   DG B  22       8.216  19.559  21.073  1.00 20.00    +0.000 A 
ATOM    430 C4'   DG B  22       9.422  19.557  21.977  1.00 20.00    +0.000 A 
ATOM    431 O4'   DG B  22      10.493  20.260  21.319  1.00 20.00    +0.000 OA
ATOM    432 C3'   DG B  22       9.267  20.267  23.325  1.00 20.00    +0.000 A 
ATOM    433 O3'   DG B  22      10.088  19.657  24.293  1.00 20.00    +0.000 OA
ATOM    434 C2'   DG B  22       9.751  21.670  22.990  1.00 20.00    +0.000 A 
ATOM    435 C1'   DG B  22      10.988  21.226  22.256  1.00 20.00    +0.000 A 
ATOM    436 N9    DG B  22      11.599  22.357  21.543  1.00 20.00    +0.000 NA
ATOM    437 C8    DG B  22      11.037  23.545  21.159  1.00 20.00    +0.000 A 
ATOM    438 N7    DG B  22      11.921  24.362  20.566  1.00 20.00    +0.000 NA
ATOM    439 C5    DG B  22      13.072  23.653  20.580  1.00 20.00    +0.000 A 
ATOM    440 C6    DG B  22      14.370  24.003  20.102  1.00 20.00    +0.000 A 
ATOM    441 O6    DG B  22      14.747  25.057  19.585  1.00 20.00    +0.000 OA
ATOM    442 N1    DG B  22      15.268  22.983  20.308  1.00 20.00    +0.000 NA
ATOM    443 C2    DG B  22      15.023  21.776  20.891  1.00 20.00    +0.000 A 
ATOM    444 N2    DG B  22      16.066  20.914  21.038  1.00 20.00    +0.000 NA
ATOM    445 N3    DG B  22      13.815  21.452  21.350  1.00 20.00    +0.000 NA
ATOM    446 C4    DG B  22      12.902  22.429  21.151  1.00 20.00    +0.000 A 
ATOM    447 P     DC B  23       9.477  18.627  25.340  1.00 20.00    +1.200 P 
ATOM    448 OP1   DC B  23       8.767  17.534  24.627  1.00 20.00    -0.600 OA
ATOM    449 OP2   DC B  23       8.670  19.409  26.312  1.00 20.00    -0.600 OA
ATOM    450 O5'   DC B  23      10.807  18.067  26.034  1.00 20.00    +0.000 OA
ATOM    451 C5'   DC B  23      11.688  17.170  25.310  1.00 20.00    +0.000 A 
ATOM    452 C4'   DC B  23      13.115  17.573  25.593  1.00 20.00    +0.000 A 
ATOM    453 O4'   DC B  23      13.284  18.804  24.893  1.00 20.00    +0.000 OA
ATOM    454 C3'   DC B  23      13.441  17.879  27.059  1.00 20.00    +0.000 A 
ATOM    455 O3'   DC B  23      14.341  16.938  27.677  1.00 20.00    +0.000 OA
ATOM    456 C2'   DC B  23      13.928  19.322  27.025  1.00 20.00    +0.000 A 
ATOM    457 C1'   DC B  23      14.312  19.508  25.568  1.00 20.00    +0.000 A 
ATOM    458 N1    DC B  23      14.144  20.932  25.170  1.00 20.00    +0.000 NA
ATOM    459 C2    DC B  23      15.199  21.595  24.630  1.00 20.00    +0.000 A 
ATOM    460 O2    DC B  23      16.257  20.984  24.504  1.00 20.00    +0.000 OA
ATOM    461 N3    DC B  23      15.067  22.877  24.257  1.00 20.00    +0.000 NA
ATOM    462 C4    DC B  23      13.898  23.510  24.404  1.00 20.00    +0.000 A 
ATOM    463 N4    DC B  23      13.771  24.813  24.018  1.00 20.00    +0.000 NA
ATOM    464 C5    DC B  23      12.795  22.866  24.967  1.00 20.00    +0.000 A 
ATOM    465 C6    DC B  23      12.935  21.540  25.359  1.00 20.00    +0.000 A 
ATOM    466 P     DG B  24      14.658  17.064  29.247  1.00 20.00    +1.200 P 
ATOM    467 OP1   DG B  24      14.863  15.717  29.825  1.00 20.00    -0.600 OA
ATOM    468 OP2   DG B  24      13.633  17.912  29.920  1.00 20.00    -0.600 OA
ATOM    469 O5'   DG B  24      16.033  17.880  29.284  1.00 20.00    +0.000 OA
ATOM    470 C5'   DG B  24      17.243  17.320  28.742  1.00 20.00    +0.000 A 
ATOM    471 C4'   DG B  24      18.208  18.464  28.758  1.00 20.00    +0.000 A 
ATOM    472 O4'   DG B  24      17.716  19.428  27.829  1.00 20.00    +0.000 OA
ATOM    473 C3'   DG B  24      18.230  19.236  30.058  1.00 20.00    +0.000 A 
ATOM    474 O3'   DG B  24      18.978  18.583  31.084  1.00 20.00    +0.000 OA
ATOM    475 C2'   DG B  24      18.885  20.519  29.578  1.00 20.00    +0.000 A 
ATOM    476 C1'   DG B  24      18.276  20.693  28.188  1.00 20.00    +0.000 A 
ATOM    477 N9    DG B  24      17.164  21.659  28.139  1.00 20.00    +0.000 NA
ATOM    478 C8    DG B  24      15.874  21.536  28.580  1.00 20.00    +0.000 A 
ATOM    479 N7    DG B  24      15.129  22.614  28.308  1.00 20.00    +0.000 NA
ATOM    480 C5    DG B  24      15.990  23.436  27.673  1.00 20.00    +0.000 A 
ATOM    481 C6    DG B  24      15.765  24.729  27.117  1.00 20.00    +0.000 A 
ATOM    482 O6    DG B  24      14.719  25.373  27.067  1.00 20.00    +0.000 OA
ATOM    483 N1    DG B  24      16.926  25.257  26.604  1.00 20.00    +0.000 NA
ATOM    484 C2    DG B  24      18.157  24.666  26.579  1.00 20.00    +0.000 A 
ATOM    485 N2    DG B  24      19.208  25.386  26.096  1.00 20.00    +0.000 NA
ATOM    486 N3    DG B  24      18.350  23.438  27.053  1.00 20.00    +0.000 NA
ATOM    487 C4    DG B  24      17.231  22.893  27.570  1.00 20.00    +0.000 A 
