ROOT
ATOM      1 C1   LIG A   1      -4.616  -0.059   4.598  1.00 20.00    -0.060 C 
ATOM      2 C2   LIG A   1      -3.700  -0.340   3.389  1.00 20.00    -0.016 C 
ATOM      3 C3   LIG A   1      -4.060  -1.751   2.810  1.00 20.00    -0.023 C 
ATOM      4 C4   LIG A   1      -4.772  -1.725   1.482  1.00 20.00    -0.044 A 
ATOM      5 C5   LIG A   1      -6.090  -1.276   1.380  1.00 20.00    -0.058 A 
ATOM      6 C6   LIG A   1      -6.581  -0.859   0.144  1.00 20.00    -0.054 A 
ATOM      7 C7   LIG A   1      -5.748  -0.848  -0.990  1.00 20.00    +0.009 A 
ATOM      8 C8   LIG A   1      -4.479  -1.449  -0.902  1.00 20.00    +0.130 A 
ATOM      9 C9   LIG A   1      -4.028  -1.951   0.319  1.00 20.00    -0.016 A 
ATOM     10 O10  LIG A   1      -3.663  -1.418  -2.013  1.00 20.00    -0.464 OA
ATOM     11 C11  LIG A   1      -2.303  -1.262  -1.840  1.00 20.00    +0.104 C 
ATOM     12 C12  LIG A   1      -1.624  -0.156  -1.466  1.00 20.00    +0.082 C 
ATOM     13 C13  LIG A   1      -0.146  -0.196  -1.503  1.00 20.00    -0.010 A 
ATOM     14 C14  LIG A   1       0.562  -1.141  -0.751  1.00 20.00    -0.052 A 
ATOM     15 C15  LIG A   1       1.961  -1.185  -0.793  1.00 20.00    -0.038 A 
ATOM     16 C16  LIG A   1       2.697  -0.303  -1.594  1.00 20.00    +0.034 A 
ATOM     17 N17  LIG A   1       4.093  -0.361  -1.529  1.00 20.00    -0.385 NA
ATOM     18 C18  LIG A   1       4.905   0.399  -2.475  1.00 20.00    +0.016 C 
ATOM     19 C19  LIG A   1       6.397   0.152  -2.234  1.00 20.00    -0.023 C 
ATOM     20 C20  LIG A   1       6.932   0.757  -0.927  1.00 20.00    -0.003 C 
ATOM     21 N21  LIG A   1       6.354   0.210   0.303  1.00 20.00    -0.317 NA
ATOM     22 C22  LIG A   1       6.798  -1.144   0.636  1.00 20.00    -0.005 C 
ATOM     23 C23  LIG A   1       8.232  -1.239   1.169  1.00 20.00    -0.039 C 
ATOM     24 C24  LIG A   1       8.432  -0.748   2.609  1.00 20.00    -0.040 C 
ATOM     25 C25  LIG A   1       8.107   0.728   2.829  1.00 20.00    -0.008 C 
ATOM     26 N26  LIG A   1       8.560   1.145   4.157  1.00 20.00    -0.330 NA
ATOM     27 C27  LIG A   1       1.986   0.667  -2.306  1.00 20.00    -0.038 A 
ATOM     28 C28  LIG A   1       0.585   0.711  -2.277  1.00 20.00    -0.052 A 
ATOM     29 C29  LIG A   1      -2.340   1.133  -1.167  1.00 20.00    +0.264 C 
ATOM     30 O30  LIG A   1      -2.122   2.135  -1.849  1.00 20.00    -0.268 OA
ATOM     31 N31  LIG A   1      -3.252   1.120  -0.118  1.00 20.00    -0.277 NA
ATOM     32 C32  LIG A   1      -4.426   1.991  -0.258  1.00 20.00    +0.029 C 
ATOM     33 C33  LIG A   1      -5.041   2.229  -1.656  1.00 20.00    -0.034 C 
ATOM     34 C34  LIG A   1      -5.259   1.064  -2.642  1.00 20.00    -0.034 C 
ATOM     35 C35  LIG A   1      -6.211  -0.086  -2.223  1.00 20.00    +0.085 C 
ATOM     36 C36  LIG A   1      -6.493  -1.027  -3.392  1.00 20.00    +0.311 C 
ATOM     37 O37  LIG A   1      -6.430  -2.246  -3.407  1.00 20.00    -0.252 OA
ATOM     38 O38  LIG A   1      -6.929  -0.377  -4.493  1.00 20.00    -0.481 OA
ATOM     39 C39  LIG A   1      -2.814   0.662   1.138  1.00 20.00    +0.246 C 
ATOM     40 O40  LIG A   1      -1.709   0.135   1.315  1.00 20.00    -0.273 OA
ATOM     41 C41  LIG A   1      -3.728   0.869   2.387  1.00 20.00    +0.088 C 
ATOM     42 N42  LIG A   1      -3.252   2.100   3.070  1.00 20.00    -0.320 NA
ATOM     43 C43  LIG A   1      -4.718  -1.355   0.903  1.00 20.00    -0.056 C 
ATOM     44 C44  LIG A   1      -4.838  -0.640  -0.432  1.00 20.00    -0.002 C 
ATOM     45 S45  LIG A   1      -3.263  -0.651  -1.337  1.00 20.00    -0.087 SA
ATOM     46 C46  LIG A   1      -2.360   0.550  -0.408  1.00 20.00    +0.205 C 
ATOM     47 O47  LIG A   1      -2.922   1.367   0.315  1.00 20.00    -0.285 OA
ATOM     48 C48  LIG A   1      -0.842   0.549  -0.673  1.00 20.00    +0.074 C 
ATOM     49 N49  LIG A   1      -0.517   1.611  -1.651  1.00 20.00    -0.321 NA
ATOM     50 C50  LIG A   1      -0.083   0.777   0.643  1.00 20.00    -0.028 C 
ATOM     51 C51  LIG A   1       1.360   0.263   0.639  1.00 20.00    -0.034 C 
ATOM     52 C52  LIG A   1       2.262   0.894  -0.424  1.00 20.00    +0.018 C 
ATOM     53 N53  LIG A   1       3.656   0.536  -0.185  1.00 20.00    -0.357 NA
ATOM     54 C54  LIG A   1       4.140  -0.692  -0.479  1.00 20.00    +0.185 C 
ATOM     55 N55  LIG A   1       3.506  -1.614  -1.104  1.00 20.00    -0.270 NA
ATOM     56 N56  LIG A   1       5.406  -0.836  -0.039  1.00 20.00    -0.370 NA
ATOM     57 H57  LIG A   1      -4.320   0.852   5.127  1.00 20.00    +0.023 H 
ATOM     58 H58  LIG A   1      -5.659   0.054   4.286  1.00 20.00    +0.023 H 
ATOM     59 H59  LIG A   1      -4.562  -0.877   5.323  1.00 20.00    +0.023 H 
ATOM     60 H60  LIG A   1      -2.681  -0.428   3.794  1.00 20.00    +0.032 H 
ATOM     61 H61  LIG A   1      -3.124  -2.317   2.704  1.00 20.00    +0.032 H 
ATOM     62 H62  LIG A   1      -4.658  -2.335   3.522  1.00 20.00    +0.032 H 
ATOM     63 H63  LIG A   1      -6.702  -1.151   2.270  1.00 20.00    +0.063 H 
ATOM     64 H64  LIG A   1      -7.587  -0.444   0.097  1.00 20.00    +0.063 H 
ATOM     65 H65  LIG A   1      -3.023  -2.359   0.403  1.00 20.00    +0.067 H 
ATOM     66 H66  LIG A   1      -1.810  -2.176  -2.157  1.00 20.00    +0.105 H 
ATOM     67 H67  LIG A   1       0.035  -1.835  -0.099  1.00 20.00    +0.063 H 
ATOM     68 H68  LIG A   1       2.477  -1.916  -0.172  1.00 20.00    +0.064 H 
ATOM     69 H69  LIG A   1       4.411  -1.321  -1.409  1.00 20.00    +0.160 HD
ATOM     70 H70  LIG A   1       4.663   0.084  -3.497  1.00 20.00    +0.049 H 
ATOM     71 H71  LIG A   1       4.703   1.472  -2.389  1.00 20.00    +0.049 H 
ATOM     72 H72  LIG A   1       6.950   0.616  -3.062  1.00 20.00    +0.030 H 
ATOM     73 H73  LIG A   1       6.617  -0.921  -2.285  1.00 20.00    +0.030 H 
ATOM     74 H74  LIG A   1       6.716   1.833  -0.935  1.00 20.00    +0.043 H 
ATOM     75 H75  LIG A   1       8.024   0.680  -0.912  1.00 20.00    +0.043 H 
ATOM     76 H76  LIG A   1       5.332   0.194   0.176  1.00 20.00    +0.122 HD
ATOM     77 H77  LIG A   1       6.120  -1.537   1.403  1.00 20.00    +0.043 H 
ATOM     78 H78  LIG A   1       6.685  -1.809  -0.229  1.00 20.00    +0.043 H 
ATOM     79 H79  LIG A   1       8.935  -0.723   0.505  1.00 20.00    +0.028 H 
ATOM     80 H80  LIG A   1       8.524  -2.298   1.143  1.00 20.00    +0.028 H 
ATOM     81 H81  LIG A   1       9.481  -0.937   2.876  1.00 20.00    +0.028 H 
ATOM     82 H82  LIG A   1       7.827  -1.362   3.289  1.00 20.00    +0.028 H 
ATOM     83 H83  LIG A   1       8.595   1.350   2.070  1.00 20.00    +0.043 H 
ATOM     84 H84  LIG A   1       7.028   0.898   2.771  1.00 20.00    +0.043 H 
ATOM     85 H85  LIG A   1       8.338   2.133   4.281  1.00 20.00    +0.118 HD
ATOM     86 H86  LIG A   1       9.577   1.073   4.203  1.00 20.00    +0.118 HD
ATOM     87 H87  LIG A   1       2.499   1.411  -2.907  1.00 20.00    +0.064 H 
ATOM     88 H88  LIG A   1       0.078   1.474  -2.865  1.00 20.00    +0.063 H 
ATOM     89 H89  LIG A   1      -5.237   1.606   0.359  1.00 20.00    +0.050 H 
ATOM     90 H90  LIG A   1      -4.154   2.963   0.174  1.00 20.00    +0.050 H 
ATOM     91 H91  LIG A   1      -4.426   2.977  -2.174  1.00 20.00    +0.029 H 
ATOM     92 H92  LIG A   1      -6.009   2.725  -1.505  1.00 20.00    +0.029 H 
ATOM     93 H93  LIG A   1      -5.680   1.528  -3.545  1.00 20.00    +0.028 H 
ATOM     94 H94  LIG A   1      -4.296   0.675  -2.981  1.00 20.00    +0.028 H 
ATOM     95 H95  LIG A   1      -7.182   0.370  -1.989  1.00 20.00    +0.047 H 
ATOM     96 H96  LIG A   1      -7.082  -1.099  -5.141  1.00 20.00    +0.296 HD
ATOM     97 H97  LIG A   1      -4.766   1.045   2.116  1.00 20.00    +0.057 H 
ATOM     98 H98  LIG A   1      -2.309   1.914   3.424  1.00 20.00    +0.119 HD
ATOM     99 H99  LIG A   1      -3.132   2.853   2.390  1.00 20.00    +0.119 HD
ATOM    100 H100 LIG A   1      -5.692  -1.369   1.403  1.00 20.00    +0.024 H 
ATOM    101 H101 LIG A   1      -4.400  -2.396   0.772  1.00 20.00    +0.024 H 
ATOM    102 H102 LIG A   1      -4.010  -0.858   1.574  1.00 20.00    +0.024 H 
ATOM    103 H103 LIG A   1      -5.576  -1.162  -1.049  1.00 20.00    +0.038 H 
ATOM    104 H104 LIG A   1      -5.199   0.384  -0.299  1.00 20.00    +0.038 H 
ATOM    105 H105 LIG A   1      -0.548  -0.421  -1.089  1.00 20.00    +0.055 H 
ATOM    106 H106 LIG A   1      -0.998   1.404  -2.529  1.00 20.00    +0.119 HD
ATOM    107 H107 LIG A   1      -0.910   2.494  -1.319  1.00 20.00    +0.119 HD
ATOM    108 H108 LIG A   1      -0.090   1.842   0.910  1.00 20.00    +0.029 H 
ATOM    109 H109 LIG A   1      -0.612   0.266   1.460  1.00 20.00    +0.029 H 
ATOM    110 H110 LIG A   1       1.788   0.443   1.634  1.00 20.00    +0.029 H 
ATOM    111 H111 LIG A   1       1.346  -0.826   0.511  1.00 20.00    +0.029 H 
ATOM    112 H112 LIG A   1       2.184   1.986  -0.377  1.00 20.00    +0.049 H 
ATOM    113 H113 LIG A   1       1.968   0.585  -1.433  1.00 20.00    +0.049 H 
ATOM    114 H114 LIG A   1       4.021   0.917   0.680  1.00 20.00    +0.163 HD
ATOM    115 H115 LIG A   1       4.092  -2.446  -1.173  1.00 20.00    +0.191 HD
ATOM    116 H116 LIG A   1       5.904  -1.619  -0.443  1.00 20.00    +0.159 HD
ATOM    117 H117 LIG A   1       5.944   0.017  -0.139  1.00 20.00    +0.159 HD
ENDROOT
TORSDOF 0
