ROOT
ATOM      1 C1   LIG A   1      -4.645  -0.788   1.527  1.00 20.00    -0.056 C 
ATOM      2 C2   LIG A   1      -4.733  -0.729   0.012  1.00 20.00    -0.002 C 
ATOM      3 S3   LIG A   1      -3.107  -0.967  -0.761  1.00 20.00    -0.087 SA
ATOM      4 C4   LIG A   1      -2.380   0.613  -0.459  1.00 20.00    +0.205 C 
ATOM      5 O5   LIG A   1      -3.043   1.578  -0.091  1.00 20.00    -0.285 OA
ATOM      6 C6   LIG A   1      -0.858   0.679  -0.700  1.00 20.00    +0.074 C 
ATOM      7 N7   LIG A   1      -0.481   2.060  -1.091  1.00 20.00    -0.321 NA
ATOM      8 C8   LIG A   1      -0.111   0.276   0.580  1.00 20.00    -0.028 C 
ATOM      9 C9   LIG A   1       1.321  -0.221   0.353  1.00 20.00    -0.034 C 
ATOM     10 C10  LIG A   1       2.244   0.774  -0.353  1.00 20.00    +0.018 C 
ATOM     11 N11  LIG A   1       3.630   0.326  -0.279  1.00 20.00    -0.357 NA
ATOM     12 C12  LIG A   1       4.097  -0.691  -1.040  1.00 20.00    +0.185 C 
ATOM     13 N13  LIG A   1       3.449  -1.278  -1.977  1.00 20.00    -0.270 NA
ATOM     14 N14  LIG A   1       5.360  -1.014  -0.699  1.00 20.00    -0.370 NA
ATOM     15 N15  LIG A   1       4.995   1.557  -1.657  1.00 20.00    -0.330 NA
ATOM     16 C16  LIG A   1       5.919   1.072  -0.641  1.00 20.00    -0.008 C 
ATOM     17 C17  LIG A   1       5.867  -0.450  -0.501  1.00 20.00    -0.040 C 
ATOM     18 C18  LIG A   1       4.489  -1.034  -0.159  1.00 20.00    -0.039 C 
ATOM     19 C19  LIG A   1       3.907  -0.482   1.146  1.00 20.00    -0.005 C 
ATOM     20 N20  LIG A   1       2.718  -1.216   1.597  1.00 20.00    -0.317 NA
ATOM     21 C21  LIG A   1       1.546  -0.944   0.755  1.00 20.00    -0.003 C 
ATOM     22 C22  LIG A   1       0.329  -1.678   1.327  1.00 20.00    -0.023 C 
ATOM     23 C23  LIG A   1      -0.911  -1.502   0.449  1.00 20.00    +0.017 C 
ATOM     24 N24  LIG A   1      -1.385  -0.121   0.520  1.00 20.00    -0.370 NA
ATOM     25 C25  LIG A   1      -2.553   0.114  -0.211  1.00 20.00    +0.126 A 
ATOM     26 C26  LIG A   1      -2.608  -0.061  -1.586  1.00 20.00    -0.019 A 
ATOM     27 C27  LIG A   1      -3.800   0.207  -2.251  1.00 20.00    -0.049 A 
ATOM     28 C28  LIG A   1      -4.909   0.651  -1.526  1.00 20.00    +0.000 A 
ATOM     29 C29  LIG A   1      -6.137   0.937  -2.150  1.00 20.00    -0.053 A 
ATOM     30 C30  LIG A   1      -7.220   1.383  -1.396  1.00 20.00    -0.062 A 
ATOM     31 C31  LIG A   1      -7.080   1.544  -0.022  1.00 20.00    -0.060 A 
ATOM     32 C32  LIG A   1      -5.857   1.259   0.592  1.00 20.00    -0.036 A 
ATOM     33 C33  LIG A   1      -4.760   0.813  -0.134  1.00 20.00    +0.073 A 
ATOM     34 N34  LIG A   1      -3.605   0.553   0.505  1.00 20.00    -0.231 NA
ATOM     35 H35  LIG A   1      -5.645  -0.677   1.961  1.00 20.00    +0.024 H 
ATOM     36 H36  LIG A   1      -4.244  -1.749   1.866  1.00 20.00    +0.024 H 
ATOM     37 H37  LIG A   1      -4.019   0.012   1.935  1.00 20.00    +0.024 H 
ATOM     38 H38  LIG A   1      -5.384  -1.536  -0.339  1.00 20.00    +0.038 H 
ATOM     39 H39  LIG A   1      -5.183   0.211  -0.321  1.00 20.00    +0.038 H 
ATOM     40 H40  LIG A   1      -0.597   0.011  -1.529  1.00 20.00    +0.055 H 
ATOM     41 H41  LIG A   1      -0.934   2.277  -1.981  1.00 20.00    +0.119 HD
ATOM     42 H42  LIG A   1      -0.920   2.703  -0.425  1.00 20.00    +0.119 HD
ATOM     43 H43  LIG A   1      -0.097   1.112   1.292  1.00 20.00    +0.029 H 
ATOM     44 H44  LIG A   1      -0.657  -0.527   1.092  1.00 20.00    +0.029 H 
ATOM     45 H45  LIG A   1       1.747  -0.482   1.331  1.00 20.00    +0.029 H 
ATOM     46 H46  LIG A   1       1.284  -1.158  -0.217  1.00 20.00    +0.029 H 
ATOM     47 H47  LIG A   1       2.183   1.751   0.140  1.00 20.00    +0.049 H 
ATOM     48 H48  LIG A   1       1.956   0.915  -1.400  1.00 20.00    +0.049 H 
ATOM     49 H49  LIG A   1       3.993   0.317   0.666  1.00 20.00    +0.163 HD
ATOM     50 H50  LIG A   1       4.020  -2.020  -2.380  1.00 20.00    +0.191 HD
ATOM     51 H51  LIG A   1       5.843  -1.583  -1.382  1.00 20.00    +0.159 HD
ATOM     52 H52  LIG A   1       5.911  -0.196  -0.466  1.00 20.00    +0.159 HD
ATOM     53 H53  LIG A   1       5.224   1.139  -2.558  1.00 20.00    +0.118 HD
ATOM     54 H54  LIG A   1       5.112   2.564  -1.771  1.00 20.00    +0.118 HD
ATOM     55 H55  LIG A   1       6.938   1.371  -0.913  1.00 20.00    +0.043 H 
ATOM     56 H56  LIG A   1       5.691   1.553   0.316  1.00 20.00    +0.043 H 
ATOM     57 H57  LIG A   1       6.215  -0.910  -1.435  1.00 20.00    +0.028 H 
ATOM     58 H58  LIG A   1       6.583  -0.751   0.274  1.00 20.00    +0.028 H 
ATOM     59 H59  LIG A   1       3.803  -0.850  -0.993  1.00 20.00    +0.028 H 
ATOM     60 H60  LIG A   1       4.596  -2.123  -0.077  1.00 20.00    +0.028 H 
ATOM     61 H61  LIG A   1       4.666  -0.577   1.932  1.00 20.00    +0.043 H 
ATOM     62 H62  LIG A   1       3.678   0.586   1.058  1.00 20.00    +0.043 H 
ATOM     63 H63  LIG A   1       2.505  -0.919   2.549  1.00 20.00    +0.122 HD
ATOM     64 H64  LIG A   1       1.349   0.133   0.719  1.00 20.00    +0.043 H 
ATOM     65 H65  LIG A   1       1.721  -1.296  -0.267  1.00 20.00    +0.043 H 
ATOM     66 H66  LIG A   1       0.553  -2.750   1.397  1.00 20.00    +0.030 H 
ATOM     67 H67  LIG A   1       0.120  -1.325   2.345  1.00 20.00    +0.030 H 
ATOM     68 H68  LIG A   1      -0.668  -1.789  -0.581  1.00 20.00    +0.049 H 
ATOM     69 H69  LIG A   1      -1.695  -2.180   0.810  1.00 20.00    +0.049 H 
ATOM     70 H70  LIG A   1      -1.658   0.123   1.474  1.00 20.00    +0.162 HD
ATOM     71 H71  LIG A   1      -1.733  -0.380  -2.141  1.00 20.00    +0.066 H 
ATOM     72 H72  LIG A   1      -3.851   0.076  -3.328  1.00 20.00    +0.063 H 
ATOM     73 H73  LIG A   1      -6.252   0.815  -3.224  1.00 20.00    +0.063 H 
ATOM     74 H74  LIG A   1      -8.168   1.604  -1.879  1.00 20.00    +0.062 H 
ATOM     75 H75  LIG A   1      -7.918   1.892   0.577  1.00 20.00    +0.062 H 
ATOM     76 H76  LIG A   1      -5.755   1.390   1.666  1.00 20.00    +0.065 H 
ENDROOT
TORSDOF 0
