MODEL 1
REMARK VINA RESULT:   -11.451      0.000      0.000
REMARK INTER + INTRA:         -11.451
REMARK INTER:                 -11.451
REMARK INTRA:                   0.000
REMARK UNBOUND:                 0.000
ROOT
ATOM      1 C1   LIG A   1       9.026  16.023  20.023  1.00 20.00    -0.044 C 
ATOM      2 C2   LIG A   1      10.515  15.781  19.638  1.00 20.00    +0.047 C 
ATOM      3 C3   LIG A   1      10.744  14.250  19.655  1.00 20.00    -0.044 C 
ATOM      4 C4   LIG A   1      10.662  16.306  18.176  1.00 20.00    -0.006 C 
ATOM      5 C5   LIG A   1      11.990  17.008  17.892  1.00 20.00    +0.058 C 
ATOM      6 O6   LIG A   1      12.279  16.938  16.489  1.00 20.00    -0.393 OA
ATOM      7 C7   LIG A   1      13.124  16.381  18.681  1.00 20.00    -0.006 C 
ATOM      8 C8   LIG A   1      12.885  16.529  20.208  1.00 20.00    +0.047 C 
ATOM      9 C9   LIG A   1      13.728  15.433  20.911  1.00 20.00    -0.044 C 
ATOM     10 C10  LIG A   1      13.461  17.905  20.645  1.00 20.00    -0.044 C 
ATOM     11 N11  LIG A   1      11.428  16.555  20.508  1.00 20.00    -0.144 NA
ATOM     12 O12  LIG A   1      11.191  16.269  21.894  1.00 20.00    -0.120 OA
ATOM     13 N13  LIG A   1       5.451  11.677  16.966  1.00 20.00    -0.289 NA
ATOM     14 C14  LIG A   1       4.401  12.266  16.498  1.00 20.00    +0.092 C 
ATOM     15 N15  LIG A   1       4.422  12.894  15.289  1.00 20.00    -0.388 NA
ATOM     16 C16  LIG A   1       3.127  12.232  17.319  1.00 20.00    +0.022 C 
ATOM     17 C17  LIG A   1       2.709  13.600  17.855  1.00 20.00    +0.022 C 
ATOM     18 N18  LIG A   1       3.687  14.156  18.797  1.00 20.00    -0.384 NA
ATOM     19 C19  LIG A   1       4.647  15.043  18.288  1.00 20.00    +0.038 A 
ATOM     20 C20  LIG A   1       4.298  16.140  17.487  1.00 20.00    -0.038 A 
ATOM     21 C21  LIG A   1       5.271  17.020  17.006  1.00 20.00    -0.045 A 
ATOM     22 C22  LIG A   1       6.610  16.815  17.343  1.00 20.00    +0.065 A 
ATOM     23 C23  LIG A   1       7.661  17.711  16.844  1.00 20.00    +0.193 C 
ATOM     24 O24  LIG A   1       7.420  18.651  16.099  1.00 20.00    -0.289 OA
ATOM     25 C25  LIG A   1       9.036  17.418  17.279  1.00 20.00    +0.030 C 
ATOM     26 C26  LIG A   1       9.260  16.373  18.090  1.00 20.00    +0.138 C 
ATOM     27 C27  LIG A   1      10.616  16.028  18.561  1.00 20.00    +0.017 A 
ATOM     28 C28  LIG A   1      11.008  14.690  18.664  1.00 20.00    -0.049 A 
ATOM     29 C29  LIG A   1      12.286  14.351  19.127  1.00 20.00    -0.038 A 
ATOM     30 C30  LIG A   1      13.221  15.330  19.486  1.00 20.00    +0.034 A 
ATOM     31 N31  LIG A   1      14.446  14.917  20.008  1.00 20.00    -0.385 NA
ATOM     32 C32  LIG A   1      15.573  15.839  20.148  1.00 20.00    +0.016 C 
ATOM     33 C33  LIG A   1      15.588  16.446  21.552  1.00 20.00    -0.023 C 
ATOM     34 C34  LIG A   1      16.646  17.540  21.707  1.00 20.00    -0.003 C 
ATOM     35 N35  LIG A   1      17.993  17.005  21.524  1.00 20.00    -0.317 NA
ATOM     36 C36  LIG A   1      19.028  18.040  21.494  1.00 20.00    -0.005 C 
ATOM     37 C37  LIG A   1      19.297  18.677  22.862  1.00 20.00    -0.039 C 
ATOM     38 C38  LIG A   1      20.390  19.752  22.819  1.00 20.00    -0.040 C 
ATOM     39 C39  LIG A   1      21.781  19.189  22.535  1.00 20.00    -0.008 C 
ATOM     40 N40  LIG A   1      22.789  20.243  22.578  1.00 20.00    -0.330 NA
ATOM     41 C41  LIG A   1      12.806  16.662  19.425  1.00 20.00    -0.038 A 
ATOM     42 C42  LIG A   1      11.529  17.011  18.962  1.00 20.00    -0.049 A 
ATOM     43 O43  LIG A   1       8.269  15.514  18.542  1.00 20.00    -0.456 OA
ATOM     44 C44  LIG A   1       6.971  15.754  18.165  1.00 20.00    +0.140 A 
ATOM     45 C45  LIG A   1       5.995  14.878  18.642  1.00 20.00    +0.005 A 
ATOM     46 H46  LIG A   1       8.354  15.585  19.275  1.00 20.00    +0.025 H 
ATOM     47 H47  LIG A   1       8.798  17.094  20.079  1.00 20.00    +0.025 H 
ATOM     48 H48  LIG A   1       8.768  15.570  20.987  1.00 20.00    +0.025 H 
ATOM     49 H49  LIG A   1      10.673  13.836  20.667  1.00 20.00    +0.025 H 
ATOM     50 H50  LIG A   1       9.984  13.739  19.051  1.00 20.00    +0.025 H 
ATOM     51 H51  LIG A   1      11.714  13.964  19.242  1.00 20.00    +0.025 H 
ATOM     52 H52  LIG A   1      10.520  15.483  17.463  1.00 20.00    +0.031 H 
ATOM     53 H53  LIG A   1       9.868  17.025  17.935  1.00 20.00    +0.031 H 
ATOM     54 H54  LIG A   1      11.908  18.074  18.141  1.00 20.00    +0.060 H 
ATOM     55 H55  LIG A   1      11.523  17.358  16.045  1.00 20.00    +0.210 HD
ATOM     56 H56  LIG A   1      13.219  15.328  18.387  1.00 20.00    +0.031 H 
ATOM     57 H57  LIG A   1      14.078  16.839  18.385  1.00 20.00    +0.031 H 
ATOM     58 H58  LIG A   1      14.768  15.467  20.563  1.00 20.00    +0.025 H 
ATOM     59 H59  LIG A   1      13.757  15.563  21.998  1.00 20.00    +0.025 H 
ATOM     60 H60  LIG A   1      13.353  14.426  20.706  1.00 20.00    +0.025 H 
ATOM     61 H61  LIG A   1      14.520  17.992  20.378  1.00 20.00    +0.025 H 
ATOM     62 H62  LIG A   1      13.388  18.050  21.728  1.00 20.00    +0.025 H 
ATOM     63 H63  LIG A   1      12.933  18.735  20.163  1.00 20.00    +0.025 H 
ATOM     64 H64  LIG A   1       6.216  11.750  16.293  1.00 20.00    +0.189 HD
ATOM     65 H65  LIG A   1       5.336  13.183  14.960  1.00 20.00    +0.157 HD
ATOM     66 H66  LIG A   1       3.720  13.608  15.133  1.00 20.00    +0.157 HD
ATOM     67 H67  LIG A   1       3.258  11.526  18.149  1.00 20.00    +0.037 H 
ATOM     68 H68  LIG A   1       2.329  11.834  16.680  1.00 20.00    +0.037 H 
ATOM     69 H69  LIG A   1       2.479  14.281  17.029  1.00 20.00    +0.049 H 
ATOM     70 H70  LIG A   1       1.770  13.471  18.408  1.00 20.00    +0.049 H 
ATOM     71 H71  LIG A   1       4.128  13.411  19.341  1.00 20.00    +0.160 HD
ATOM     72 H72  LIG A   1       3.256  16.341  17.253  1.00 20.00    +0.064 H 
ATOM     73 H73  LIG A   1       4.983  17.865  16.385  1.00 20.00    +0.063 H 
ATOM     74 H74  LIG A   1       9.811  18.074  16.906  1.00 20.00    +0.070 H 
ATOM     75 H75  LIG A   1      10.323  13.890  18.391  1.00 20.00    +0.063 H 
ATOM     76 H76  LIG A   1      12.544  13.298  19.214  1.00 20.00    +0.064 H 
ATOM     77 H77  LIG A   1      14.728  14.004  19.657  1.00 20.00    +0.160 HD
ATOM     78 H78  LIG A   1      16.494  15.262  19.998  1.00 20.00    +0.049 H 
ATOM     79 H79  LIG A   1      15.566  16.608  19.368  1.00 20.00    +0.049 H 
ATOM     80 H80  LIG A   1      15.753  15.655  22.295  1.00 20.00    +0.030 H 
ATOM     81 H81  LIG A   1      14.609  16.882  21.787  1.00 20.00    +0.030 H 
ATOM     82 H82  LIG A   1      16.542  17.976  22.707  1.00 20.00    +0.043 H 
ATOM     83 H83  LIG A   1      16.446  18.333  20.976  1.00 20.00    +0.043 H 
ATOM     84 H84  LIG A   1      18.200  16.333  22.264  1.00 20.00    +0.122 HD
ATOM     85 H85  LIG A   1      19.941  17.557  21.133  1.00 20.00    +0.043 H 
ATOM     86 H86  LIG A   1      18.775  18.810  20.753  1.00 20.00    +0.043 H 
ATOM     87 H87  LIG A   1      18.382  19.154  23.235  1.00 20.00    +0.028 H 
ATOM     88 H88  LIG A   1      19.571  17.903  23.590  1.00 20.00    +0.028 H 
ATOM     89 H89  LIG A   1      20.399  20.261  23.790  1.00 20.00    +0.028 H 
ATOM     90 H90  LIG A   1      20.127  20.509  22.070  1.00 20.00    +0.028 H 
ATOM     91 H91  LIG A   1      21.820  18.719  21.549  1.00 20.00    +0.043 H 
ATOM     92 H92  LIG A   1      22.039  18.423  23.274  1.00 20.00    +0.043 H 
ATOM     93 H93  LIG A   1      22.567  20.961  21.888  1.00 20.00    +0.118 HD
ATOM     94 H94  LIG A   1      22.763  20.709  23.484  1.00 20.00    +0.118 HD
ATOM     95 H95  LIG A   1      13.462  17.466  19.746  1.00 20.00    +0.064 H 
ATOM     96 H96  LIG A   1      11.257  18.063  18.946  1.00 20.00    +0.063 H 
ATOM     97 H97  LIG A   1       6.297  14.050  19.278  1.00 20.00    +0.068 H 
ENDROOT
TORSDOF 0
                                                                                                    
ENDMDL
MODEL 2
REMARK VINA RESULT:   -10.208     13.735     17.223
REMARK INTER + INTRA:         -10.208
REMARK INTER:                 -10.208
REMARK INTRA:                   0.000
REMARK UNBOUND:                 0.000
ROOT
ATOM      1 C1   LIG A   1      19.709  20.741  11.002  1.00 20.00    -0.044 C 
ATOM      2 C2   LIG A   1      20.285  20.495   9.577  1.00 20.00    +0.047 C 
ATOM      3 C3   LIG A   1      19.482  21.393   8.604  1.00 20.00    -0.044 C 
ATOM      4 C4   LIG A   1      21.764  20.989   9.629  1.00 20.00    -0.006 C 
ATOM      5 C5   LIG A   1      22.742  20.129   8.828  1.00 20.00    +0.058 C 
ATOM      6 O6   LIG A   1      23.882  20.917   8.459  1.00 20.00    -0.393 OA
ATOM      7 C7   LIG A   1      22.085  19.565   7.582  1.00 20.00    -0.006 C 
ATOM      8 C8   LIG A   1      20.903  18.628   7.954  1.00 20.00    +0.047 C 
ATOM      9 C9   LIG A   1      19.973  18.551   6.715  1.00 20.00    -0.044 C 
ATOM     10 C10  LIG A   1      21.484  17.205   8.185  1.00 20.00    -0.044 C 
ATOM     11 N11  LIG A   1      20.284  19.055   9.238  1.00 20.00    -0.144 NA
ATOM     12 O12  LIG A   1      18.972  18.489   9.380  1.00 20.00    -0.120 OA
ATOM     13 N13  LIG A   1      18.710  27.030  11.683  1.00 20.00    -0.289 NA
ATOM     14 C14  LIG A   1      19.117  27.385  12.857  1.00 20.00    +0.092 C 
ATOM     15 N15  LIG A   1      20.421  27.709  13.085  1.00 20.00    -0.388 NA
ATOM     16 C16  LIG A   1      18.106  27.451  13.984  1.00 20.00    +0.022 C 
ATOM     17 C17  LIG A   1      18.332  26.401  15.070  1.00 20.00    +0.022 C 
ATOM     18 N18  LIG A   1      18.170  25.032  14.569  1.00 20.00    -0.384 NA
ATOM     19 C19  LIG A   1      19.326  24.348  14.163  1.00 20.00    +0.038 A 
ATOM     20 C20  LIG A   1      20.469  24.271  14.972  1.00 20.00    -0.038 A 
ATOM     21 C21  LIG A   1      21.603  23.570  14.553  1.00 20.00    -0.045 A 
ATOM     22 C22  LIG A   1      21.591  22.919  13.320  1.00 20.00    +0.065 A 
ATOM     23 C23  LIG A   1      22.769  22.183  12.841  1.00 20.00    +0.193 C 
ATOM     24 O24  LIG A   1      23.811  22.129  13.481  1.00 20.00    -0.289 OA
ATOM     25 C25  LIG A   1      22.641  21.513  11.537  1.00 20.00    +0.030 C 
ATOM     26 C26  LIG A   1      21.485  21.604  10.863  1.00 20.00    +0.138 C 
ATOM     27 C27  LIG A   1      21.295  20.954   9.551  1.00 20.00    +0.017 A 
ATOM     28 C28  LIG A   1      20.577  21.601   8.541  1.00 20.00    -0.049 A 
ATOM     29 C29  LIG A   1      20.375  20.986   7.298  1.00 20.00    -0.038 A 
ATOM     30 C30  LIG A   1      20.894  19.716   7.013  1.00 20.00    +0.034 A 
ATOM     31 N31  LIG A   1      20.590  19.137   5.782  1.00 20.00    -0.385 NA
ATOM     32 C32  LIG A   1      21.302  17.958   5.290  1.00 20.00    +0.016 C 
ATOM     33 C33  LIG A   1      20.543  16.686   5.670  1.00 20.00    -0.023 C 
ATOM     34 C34  LIG A   1      21.320  15.414   5.326  1.00 20.00    -0.003 C 
ATOM     35 N35  LIG A   1      21.534  15.296   3.885  1.00 20.00    -0.317 NA
ATOM     36 C36  LIG A   1      22.418  14.187   3.520  1.00 20.00    -0.005 C 
ATOM     37 C37  LIG A   1      21.773  12.807   3.695  1.00 20.00    -0.039 C 
ATOM     38 C38  LIG A   1      22.704  11.656   3.299  1.00 20.00    -0.040 C 
ATOM     39 C39  LIG A   1      22.995  11.601   1.800  1.00 20.00    -0.008 C 
ATOM     40 N40  LIG A   1      23.823  10.445   1.472  1.00 20.00    -0.330 NA
ATOM     41 C41  LIG A   1      21.570  19.057   8.043  1.00 20.00    -0.038 A 
ATOM     42 C42  LIG A   1      21.777  19.666   9.289  1.00 20.00    -0.049 A 
ATOM     43 O43  LIG A   1      20.381  22.318  11.305  1.00 20.00    -0.456 OA
ATOM     44 C44  LIG A   1      20.455  22.952  12.520  1.00 20.00    +0.140 A 
ATOM     45 C45  LIG A   1      19.326  23.656  12.943  1.00 20.00    +0.005 A 
ATOM     46 H46  LIG A   1      19.868  21.781  11.312  1.00 20.00    +0.025 H 
ATOM     47 H47  LIG A   1      20.199  20.101  11.746  1.00 20.00    +0.025 H 
ATOM     48 H48  LIG A   1      18.631  20.555  11.052  1.00 20.00    +0.025 H 
ATOM     49 H49  LIG A   1      18.438  21.071   8.515  1.00 20.00    +0.025 H 
ATOM     50 H50  LIG A   1      19.464  22.430   8.960  1.00 20.00    +0.025 H 
ATOM     51 H51  LIG A   1      19.912  21.417   7.600  1.00 20.00    +0.025 H 
ATOM     52 H52  LIG A   1      21.826  22.032   9.290  1.00 20.00    +0.031 H 
ATOM     53 H53  LIG A   1      22.136  21.008  10.662  1.00 20.00    +0.031 H 
ATOM     54 H54  LIG A   1      23.117  19.310   9.454  1.00 20.00    +0.060 H 
ATOM     55 H55  LIG A   1      24.257  21.241   9.296  1.00 20.00    +0.210 HD
ATOM     56 H56  LIG A   1      21.755  20.397   6.948  1.00 20.00    +0.031 H 
ATOM     57 H57  LIG A   1      22.833  19.035   6.976  1.00 20.00    +0.031 H 
ATOM     58 H58  LIG A   1      20.549  18.294   5.819  1.00 20.00    +0.025 H 
ATOM     59 H59  LIG A   1      19.200  17.781   6.823  1.00 20.00    +0.025 H 
ATOM     60 H60  LIG A   1      19.471  19.501   6.514  1.00 20.00    +0.025 H 
ATOM     61 H61  LIG A   1      22.031  16.854   7.302  1.00 20.00    +0.025 H 
ATOM     62 H62  LIG A   1      20.695  16.472   8.386  1.00 20.00    +0.025 H 
ATOM     63 H63  LIG A   1      22.179  17.185   9.031  1.00 20.00    +0.025 H 
ATOM     64 H64  LIG A   1      19.488  27.068  11.022  1.00 20.00    +0.189 HD
ATOM     65 H65  LIG A   1      21.090  27.328  12.427  1.00 20.00    +0.157 HD
ATOM     66 H66  LIG A   1      20.749  27.639  14.041  1.00 20.00    +0.157 HD
ATOM     67 H67  LIG A   1      17.098  27.346  13.563  1.00 20.00    +0.037 H 
ATOM     68 H68  LIG A   1      18.167  28.452  14.429  1.00 20.00    +0.037 H 
ATOM     69 H69  LIG A   1      19.296  26.562  15.564  1.00 20.00    +0.049 H 
ATOM     70 H70  LIG A   1      17.569  26.550  15.845  1.00 20.00    +0.049 H 
ATOM     71 H71  LIG A   1      17.450  24.995  13.844  1.00 20.00    +0.160 HD
ATOM     72 H72  LIG A   1      20.479  24.734  15.956  1.00 20.00    +0.064 H 
ATOM     73 H73  LIG A   1      22.481  23.522  15.193  1.00 20.00    +0.063 H 
ATOM     74 H74  LIG A   1      23.511  20.978  11.182  1.00 20.00    +0.070 H 
ATOM     75 H75  LIG A   1      20.158  22.591   8.707  1.00 20.00    +0.063 H 
ATOM     76 H76  LIG A   1      19.792  21.513   6.547  1.00 20.00    +0.064 H 
ATOM     77 H77  LIG A   1      20.435  19.833   5.055  1.00 20.00    +0.160 HD
ATOM     78 H78  LIG A   1      21.351  18.032   4.197  1.00 20.00    +0.049 H 
ATOM     79 H79  LIG A   1      22.341  17.937   5.639  1.00 20.00    +0.049 H 
ATOM     80 H80  LIG A   1      19.564  16.676   5.172  1.00 20.00    +0.030 H 
ATOM     81 H81  LIG A   1      20.333  16.677   6.747  1.00 20.00    +0.030 H 
ATOM     82 H82  LIG A   1      20.750  14.555   5.697  1.00 20.00    +0.043 H 
ATOM     83 H83  LIG A   1      22.280  15.429   5.856  1.00 20.00    +0.043 H 
ATOM     84 H84  LIG A   1      20.637  15.193   3.411  1.00 20.00    +0.122 HD
ATOM     85 H85  LIG A   1      22.682  14.333   2.468  1.00 20.00    +0.043 H 
ATOM     86 H86  LIG A   1      23.358  14.248   4.084  1.00 20.00    +0.043 H 
ATOM     87 H87  LIG A   1      21.495  12.659   4.745  1.00 20.00    +0.028 H 
ATOM     88 H88  LIG A   1      20.846  12.749   3.110  1.00 20.00    +0.028 H 
ATOM     89 H89  LIG A   1      22.228  10.718   3.608  1.00 20.00    +0.028 H 
ATOM     90 H90  LIG A   1      23.640  11.733   3.864  1.00 20.00    +0.028 H 
ATOM     91 H91  LIG A   1      23.517  12.501   1.469  1.00 20.00    +0.043 H 
ATOM     92 H92  LIG A   1      22.059  11.537   1.235  1.00 20.00    +0.043 H 
ATOM     93 H93  LIG A   1      24.703  10.495   1.986  1.00 20.00    +0.118 HD
ATOM     94 H94  LIG A   1      23.365   9.591   1.786  1.00 20.00    +0.118 HD
ATOM     95 H95  LIG A   1      21.945  18.048   7.907  1.00 20.00    +0.064 H 
ATOM     96 H96  LIG A   1      22.301  19.101  10.057  1.00 20.00    +0.063 H 
ATOM     97 H97  LIG A   1      18.449  23.677  12.301  1.00 20.00    +0.068 H 
ENDROOT
TORSDOF 0
                                                                                                    
ENDMDL
MODEL 3
REMARK VINA RESULT:   -10.124     13.890     15.871
REMARK INTER + INTRA:         -10.124
REMARK INTER:                 -10.124
REMARK INTRA:                   0.000
REMARK UNBOUND:                 0.000
ROOT
ATOM      1 C1   LIG A   1      20.859  15.258   6.220  1.00 20.00    -0.044 C 
ATOM      2 C2   LIG A   1      20.235  16.563   6.795  1.00 20.00    +0.047 C 
ATOM      3 C3   LIG A   1      19.900  17.474   5.588  1.00 20.00    -0.044 C 
ATOM      4 C4   LIG A   1      18.909  16.125   7.491  1.00 20.00    -0.006 C 
ATOM      5 C5   LIG A   1      18.603  16.876   8.787  1.00 20.00    +0.058 C 
ATOM      6 O6   LIG A   1      17.190  16.849   9.034  1.00 20.00    -0.393 OA
ATOM      7 C7   LIG A   1      19.083  18.313   8.717  1.00 20.00    -0.006 C 
ATOM      8 C8   LIG A   1      20.626  18.375   8.545  1.00 20.00    +0.047 C 
ATOM      9 C9   LIG A   1      20.963  19.761   7.937  1.00 20.00    -0.044 C 
ATOM     10 C10  LIG A   1      21.259  18.326   9.963  1.00 20.00    -0.044 C 
ATOM     11 N11  LIG A   1      21.117  17.178   7.811  1.00 20.00    -0.144 NA
ATOM     12 O12  LIG A   1      22.431  17.412   7.285  1.00 20.00    -0.120 OA
ATOM     13 N13  LIG A   1      17.467  13.536   1.068  1.00 20.00    -0.289 NA
ATOM     14 C14  LIG A   1      17.278  12.259   1.109  1.00 20.00    +0.092 C 
ATOM     15 N15  LIG A   1      16.236  11.720   1.803  1.00 20.00    -0.388 NA
ATOM     16 C16  LIG A   1      18.237  11.361   0.353  1.00 20.00    +0.022 C 
ATOM     17 C17  LIG A   1      19.098  10.485   1.260  1.00 20.00    +0.022 C 
ATOM     18 N18  LIG A   1      19.996  11.273   2.112  1.00 20.00    -0.384 NA
ATOM     19 C19  LIG A   1      19.560  11.573   3.411  1.00 20.00    +0.038 A 
ATOM     20 C20  LIG A   1      19.062  10.590   4.277  1.00 20.00    -0.038 A 
ATOM     21 C21  LIG A   1      18.649  10.911   5.572  1.00 20.00    -0.045 A 
ATOM     22 C22  LIG A   1      18.753  12.228   6.020  1.00 20.00    +0.065 A 
ATOM     23 C23  LIG A   1      18.317  12.606   7.370  1.00 20.00    +0.193 C 
ATOM     24 O24  LIG A   1      17.824  11.799   8.148  1.00 20.00    -0.289 OA
ATOM     25 C25  LIG A   1      18.492  14.017   7.748  1.00 20.00    +0.030 C 
ATOM     26 C26  LIG A   1      19.028  14.872   6.864  1.00 20.00    +0.138 C 
ATOM     27 C27  LIG A   1      19.230  16.299   7.184  1.00 20.00    +0.017 A 
ATOM     28 C28  LIG A   1      18.997  17.279   6.215  1.00 20.00    -0.049 A 
ATOM     29 C29  LIG A   1      19.203  18.635   6.502  1.00 20.00    -0.038 A 
ATOM     30 C30  LIG A   1      19.630  19.062   7.766  1.00 20.00    +0.034 A 
ATOM     31 N31  LIG A   1      19.885  20.419   7.955  1.00 20.00    -0.385 NA
ATOM     32 C32  LIG A   1      20.062  20.989   9.290  1.00 20.00    +0.016 C 
ATOM     33 C33  LIG A   1      21.547  21.028   9.655  1.00 20.00    -0.023 C 
ATOM     34 C34  LIG A   1      21.784  21.462  11.103  1.00 20.00    -0.003 C 
ATOM     35 N35  LIG A   1      21.315  22.827  11.331  1.00 20.00    -0.317 NA
ATOM     36 C36  LIG A   1      21.363  23.228  12.739  1.00 20.00    -0.005 C 
ATOM     37 C37  LIG A   1      22.786  23.463  13.259  1.00 20.00    -0.039 C 
ATOM     38 C38  LIG A   1      22.822  23.892  14.731  1.00 20.00    -0.040 C 
ATOM     39 C39  LIG A   1      22.242  25.286  14.969  1.00 20.00    -0.008 C 
ATOM     40 N40  LIG A   1      22.370  25.671  16.370  1.00 20.00    -0.330 NA
ATOM     41 C41  LIG A   1      19.906  18.074   8.713  1.00 20.00    -0.038 A 
ATOM     42 C42  LIG A   1      19.702  16.715   8.435  1.00 20.00    -0.049 A 
ATOM     43 O43  LIG A   1      19.419  14.519   5.581  1.00 20.00    -0.456 OA
ATOM     44 C44  LIG A   1      19.278  13.211   5.189  1.00 20.00    +0.140 A 
ATOM     45 C45  LIG A   1      19.687  12.884   3.896  1.00 20.00    +0.005 A 
ATOM     46 H46  LIG A   1      20.133  14.720   5.598  1.00 20.00    +0.025 H 
ATOM     47 H47  LIG A   1      21.168  14.577   7.022  1.00 20.00    +0.025 H 
ATOM     48 H48  LIG A   1      21.732  15.458   5.589  1.00 20.00    +0.025 H 
ATOM     49 H49  LIG A   1      20.803  17.827   5.078  1.00 20.00    +0.025 H 
ATOM     50 H50  LIG A   1      19.309  16.927   4.843  1.00 20.00    +0.025 H 
ATOM     51 H51  LIG A   1      19.310  18.348   5.871  1.00 20.00    +0.025 H 
ATOM     52 H52  LIG A   1      18.065  16.229   6.796  1.00 20.00    +0.031 H 
ATOM     53 H53  LIG A   1      18.933  15.057   7.746  1.00 20.00    +0.031 H 
ATOM     54 H54  LIG A   1      19.078  16.366   9.634  1.00 20.00    +0.060 H 
ATOM     55 H55  LIG A   1      16.950  15.908   9.074  1.00 20.00    +0.210 HD
ATOM     56 H56  LIG A   1      18.566  18.820   7.892  1.00 20.00    +0.031 H 
ATOM     57 H57  LIG A   1      18.764  18.856   9.618  1.00 20.00    +0.031 H 
ATOM     58 H58  LIG A   1      20.494  20.561   8.522  1.00 20.00    +0.025 H 
ATOM     59 H59  LIG A   1      22.040  19.964   7.936  1.00 20.00    +0.025 H 
ATOM     60 H60  LIG A   1      20.604  19.862   6.909  1.00 20.00    +0.025 H 
ATOM     61 H61  LIG A   1      20.878  19.137  10.595  1.00 20.00    +0.025 H 
ATOM     62 H62  LIG A   1      22.349  18.435   9.926  1.00 20.00    +0.025 H 
ATOM     63 H63  LIG A   1      21.038  17.382  10.473  1.00 20.00    +0.025 H 
ATOM     64 H64  LIG A   1      16.727  14.011   1.589  1.00 20.00    +0.189 HD
ATOM     65 H65  LIG A   1      15.855  12.298   2.543  1.00 20.00    +0.157 HD
ATOM     66 H66  LIG A   1      16.328  10.752   2.088  1.00 20.00    +0.157 HD
ATOM     67 H67  LIG A   1      18.875  11.983  -0.287  1.00 20.00    +0.037 H 
ATOM     68 H68  LIG A   1      17.642  10.720  -0.310  1.00 20.00    +0.037 H 
ATOM     69 H69  LIG A   1      18.473   9.790   1.830  1.00 20.00    +0.049 H 
ATOM     70 H70  LIG A   1      19.733   9.860   0.619  1.00 20.00    +0.049 H 
ATOM     71 H71  LIG A   1      20.308  12.116   1.626  1.00 20.00    +0.160 HD
ATOM     72 H72  LIG A   1      19.017   9.550   3.961  1.00 20.00    +0.064 H 
ATOM     73 H73  LIG A   1      18.263  10.135   6.230  1.00 20.00    +0.063 H 
ATOM     74 H74  LIG A   1      18.164  14.296   8.741  1.00 20.00    +0.070 H 
ATOM     75 H75  LIG A   1      18.657  17.002   5.219  1.00 20.00    +0.063 H 
ATOM     76 H76  LIG A   1      19.032  19.363   5.713  1.00 20.00    +0.064 H 
ATOM     77 H77  LIG A   1      19.316  21.008   7.350  1.00 20.00    +0.160 HD
ATOM     78 H78  LIG A   1      19.672  22.014   9.268  1.00 20.00    +0.049 H 
ATOM     79 H79  LIG A   1      19.468  20.455  10.041  1.00 20.00    +0.049 H 
ATOM     80 H80  LIG A   1      22.079  21.700   8.968  1.00 20.00    +0.030 H 
ATOM     81 H81  LIG A   1      21.997  20.037   9.518  1.00 20.00    +0.030 H 
ATOM     82 H82  LIG A   1      22.858  21.390  11.309  1.00 20.00    +0.043 H 
ATOM     83 H83  LIG A   1      21.269  20.763  11.773  1.00 20.00    +0.043 H 
ATOM     84 H84  LIG A   1      21.863  23.478  10.768  1.00 20.00    +0.122 HD
ATOM     85 H85  LIG A   1      20.790  24.157  12.818  1.00 20.00    +0.043 H 
ATOM     86 H86  LIG A   1      20.841  22.491  13.362  1.00 20.00    +0.043 H 
ATOM     87 H87  LIG A   1      23.369  22.539  13.172  1.00 20.00    +0.028 H 
ATOM     88 H88  LIG A   1      23.291  24.217  12.643  1.00 20.00    +0.028 H 
ATOM     89 H89  LIG A   1      23.868  23.878  15.059  1.00 20.00    +0.028 H 
ATOM     90 H90  LIG A   1      22.291  23.152  15.340  1.00 20.00    +0.028 H 
ATOM     91 H91  LIG A   1      21.184  25.321  14.699  1.00 20.00    +0.043 H 
ATOM     92 H92  LIG A   1      22.763  26.024  14.350  1.00 20.00    +0.043 H 
ATOM     93 H93  LIG A   1      21.882  24.996  16.959  1.00 20.00    +0.118 HD
ATOM     94 H94  LIG A   1      23.349  25.631  16.652  1.00 20.00    +0.118 HD
ATOM     95 H95  LIG A   1      20.297  18.334   9.692  1.00 20.00    +0.064 H 
ATOM     96 H96  LIG A   1      19.944  15.989   9.208  1.00 20.00    +0.063 H 
ATOM     97 H97  LIG A   1      20.090  13.668   3.258  1.00 20.00    +0.068 H 
ENDROOT
TORSDOF 0
                                                                                                    
ENDMDL
MODEL 4
REMARK VINA RESULT:    -9.997     13.755     17.369
REMARK INTER + INTRA:          -9.997
REMARK INTER:                  -9.997
REMARK INTRA:                   0.000
REMARK UNBOUND:                 0.000
ROOT
ATOM      1 C1   LIG A   1      22.063  20.354  10.295  1.00 20.00    -0.044 C 
ATOM      2 C2   LIG A   1      21.126  19.442   9.450  1.00 20.00    +0.047 C 
ATOM      3 C3   LIG A   1      20.040  18.897  10.410  1.00 20.00    -0.044 C 
ATOM      4 C4   LIG A   1      20.458  20.382   8.400  1.00 20.00    -0.006 C 
ATOM      5 C5   LIG A   1      20.271  19.750   7.020  1.00 20.00    +0.058 C 
ATOM      6 O6   LIG A   1      19.196  20.407   6.334  1.00 20.00    -0.393 OA
ATOM      7 C7   LIG A   1      19.977  18.266   7.130  1.00 20.00    -0.006 C 
ATOM      8 C8   LIG A   1      21.167  17.512   7.784  1.00 20.00    +0.047 C 
ATOM      9 C9   LIG A   1      20.608  16.185   8.360  1.00 20.00    -0.044 C 
ATOM     10 C10  LIG A   1      22.167  17.140   6.654  1.00 20.00    -0.044 C 
ATOM     11 N11  LIG A   1      21.894  18.404   8.728  1.00 20.00    -0.144 NA
ATOM     12 O12  LIG A   1      22.702  17.634   9.630  1.00 20.00    -0.120 OA
ATOM     13 N13  LIG A   1      18.413  23.885  14.196  1.00 20.00    -0.289 NA
ATOM     14 C14  LIG A   1      18.863  25.095  14.195  1.00 20.00    +0.092 C 
ATOM     15 N15  LIG A   1      18.475  25.994  13.247  1.00 20.00    -0.388 NA
ATOM     16 C16  LIG A   1      19.829  25.509  15.287  1.00 20.00    +0.022 C 
ATOM     17 C17  LIG A   1      21.238  25.805  14.777  1.00 20.00    +0.022 C 
ATOM     18 N18  LIG A   1      21.886  24.621  14.201  1.00 20.00    -0.384 NA
ATOM     19 C19  LIG A   1      21.802  24.446  12.811  1.00 20.00    +0.038 A 
ATOM     20 C20  LIG A   1      22.125  25.471  11.910  1.00 20.00    -0.038 A 
ATOM     21 C21  LIG A   1      22.050  25.268  10.530  1.00 20.00    -0.045 A 
ATOM     22 C22  LIG A   1      21.667  24.019  10.040  1.00 20.00    +0.065 A 
ATOM     23 C23  LIG A   1      21.563  23.772   8.596  1.00 20.00    +0.193 C 
ATOM     24 O24  LIG A   1      21.781  24.645   7.766  1.00 20.00    -0.289 OA
ATOM     25 C25  LIG A   1      21.175  22.414   8.186  1.00 20.00    +0.030 C 
ATOM     26 C26  LIG A   1      20.937  21.487   9.127  1.00 20.00    +0.138 C 
ATOM     27 C27  LIG A   1      20.543  20.107   8.780  1.00 20.00    +0.017 A 
ATOM     28 C28  LIG A   1      19.585  19.433   9.543  1.00 20.00    -0.049 A 
ATOM     29 C29  LIG A   1      19.218  18.117   9.234  1.00 20.00    -0.038 A 
ATOM     30 C30  LIG A   1      19.777  17.434   8.146  1.00 20.00    +0.034 A 
ATOM     31 N31  LIG A   1      19.417  16.102   7.944  1.00 20.00    -0.385 NA
ATOM     32 C32  LIG A   1      19.727  15.403   6.697  1.00 20.00    +0.016 C 
ATOM     33 C33  LIG A   1      21.051  14.650   6.829  1.00 20.00    -0.023 C 
ATOM     34 C34  LIG A   1      21.509  14.033   5.506  1.00 20.00    -0.003 C 
ATOM     35 N35  LIG A   1      20.560  13.027   5.033  1.00 20.00    -0.317 NA
ATOM     36 C36  LIG A   1      20.865  12.530   3.690  1.00 20.00    -0.005 C 
ATOM     37 C37  LIG A   1      22.098  11.620   3.639  1.00 20.00    -0.039 C 
ATOM     38 C38  LIG A   1      22.399  11.098   2.229  1.00 20.00    -0.040 C 
ATOM     39 C39  LIG A   1      21.349  10.116   1.710  1.00 20.00    -0.008 C 
ATOM     40 N40  LIG A   1      21.724   9.597   0.399  1.00 20.00    -0.330 NA
ATOM     41 C41  LIG A   1      20.767  18.097   7.417  1.00 20.00    -0.038 A 
ATOM     42 C42  LIG A   1      21.140  19.414   7.719  1.00 20.00    -0.049 A 
ATOM     43 O43  LIG A   1      21.012  21.727  10.491  1.00 20.00    -0.456 OA
ATOM     44 C44  LIG A   1      21.379  22.980  10.916  1.00 20.00    +0.140 A 
ATOM     45 C45  LIG A   1      21.454  23.189  12.294  1.00 20.00    +0.005 A 
ATOM     46 H46  LIG A   1      21.514  21.218  10.689  1.00 20.00    +0.025 H 
ATOM     47 H47  LIG A   1      22.891  20.743   9.690  1.00 20.00    +0.025 H 
ATOM     48 H48  LIG A   1      22.489  19.828  11.155  1.00 20.00    +0.025 H 
ATOM     49 H49  LIG A   1      20.458  18.211  11.155  1.00 20.00    +0.025 H 
ATOM     50 H50  LIG A   1      19.568  19.717  10.965  1.00 20.00    +0.025 H 
ATOM     51 H51  LIG A   1      19.237  18.374   9.885  1.00 20.00    +0.025 H 
ATOM     52 H52  LIG A   1      19.490  20.741   8.776  1.00 20.00    +0.031 H 
ATOM     53 H53  LIG A   1      21.054  21.292   8.250  1.00 20.00    +0.031 H 
ATOM     54 H54  LIG A   1      21.171  19.908   6.414  1.00 20.00    +0.060 H 
ATOM     55 H55  LIG A   1      19.447  21.345   6.292  1.00 20.00    +0.210 HD
ATOM     56 H56  LIG A   1      19.051  18.130   7.702  1.00 20.00    +0.031 H 
ATOM     57 H57  LIG A   1      19.750  17.858   6.136  1.00 20.00    +0.031 H 
ATOM     58 H58  LIG A   1      20.036  15.646   7.594  1.00 20.00    +0.025 H 
ATOM     59 H59  LIG A   1      21.403  15.508   8.692  1.00 20.00    +0.025 H 
ATOM     60 H60  LIG A   1      19.935  16.351   9.206  1.00 20.00    +0.025 H 
ATOM     61 H61  LIG A   1      21.678  16.548   5.873  1.00 20.00    +0.025 H 
ATOM     62 H62  LIG A   1      23.005  16.544   7.033  1.00 20.00    +0.025 H 
ATOM     63 H63  LIG A   1      22.586  18.032   6.175  1.00 20.00    +0.025 H 
ATOM     64 H64  LIG A   1      17.748  23.764  13.430  1.00 20.00    +0.189 HD
ATOM     65 H65  LIG A   1      18.129  25.597  12.381  1.00 20.00    +0.157 HD
ATOM     66 H66  LIG A   1      19.092  26.781  13.082  1.00 20.00    +0.157 HD
ATOM     67 H67  LIG A   1      19.863  24.719  16.048  1.00 20.00    +0.037 H 
ATOM     68 H68  LIG A   1      19.423  26.406  15.770  1.00 20.00    +0.037 H 
ATOM     69 H69  LIG A   1      21.226  26.659  14.091  1.00 20.00    +0.049 H 
ATOM     70 H70  LIG A   1      21.847  26.117  15.634  1.00 20.00    +0.049 H 
ATOM     71 H71  LIG A   1      21.596  23.774  14.695  1.00 20.00    +0.160 HD
ATOM     72 H72  LIG A   1      22.469  26.436  12.274  1.00 20.00    +0.064 H 
ATOM     73 H73  LIG A   1      22.302  26.074   9.846  1.00 20.00    +0.063 H 
ATOM     74 H74  LIG A   1      21.091  22.234   7.123  1.00 20.00    +0.070 H 
ATOM     75 H75  LIG A   1      19.114  19.920  10.394  1.00 20.00    +0.063 H 
ATOM     76 H76  LIG A   1      18.486  17.621   9.866  1.00 20.00    +0.064 H 
ATOM     77 H77  LIG A   1      18.480  15.899   8.286  1.00 20.00    +0.160 HD
ATOM     78 H78  LIG A   1      18.921  14.682   6.514  1.00 20.00    +0.049 H 
ATOM     79 H79  LIG A   1      19.724  16.085   5.839  1.00 20.00    +0.049 H 
ATOM     80 H80  LIG A   1      20.959  13.870   7.596  1.00 20.00    +0.030 H 
ATOM     81 H81  LIG A   1      21.839  15.328   7.180  1.00 20.00    +0.030 H 
ATOM     82 H82  LIG A   1      22.495  13.582   5.662  1.00 20.00    +0.043 H 
ATOM     83 H83  LIG A   1      21.623  14.832   4.762  1.00 20.00    +0.043 H 
ATOM     84 H84  LIG A   1      20.530  12.247   5.691  1.00 20.00    +0.122 HD
ATOM     85 H85  LIG A   1      19.986  11.969   3.359  1.00 20.00    +0.043 H 
ATOM     86 H86  LIG A   1      20.976  13.369   2.990  1.00 20.00    +0.043 H 
ATOM     87 H87  LIG A   1      22.980  12.172   3.980  1.00 20.00    +0.028 H 
ATOM     88 H88  LIG A   1      21.967  10.773   4.325  1.00 20.00    +0.028 H 
ATOM     89 H89  LIG A   1      23.375  10.599   2.257  1.00 20.00    +0.028 H 
ATOM     90 H90  LIG A   1      22.499  11.944   1.540  1.00 20.00    +0.028 H 
ATOM     91 H91  LIG A   1      20.373  10.598   1.620  1.00 20.00    +0.043 H 
ATOM     92 H92  LIG A   1      21.238   9.277   2.404  1.00 20.00    +0.043 H 
ATOM     93 H93  LIG A   1      21.823  10.369  -0.262  1.00 20.00    +0.118 HD
ATOM     94 H94  LIG A   1      22.641   9.156   0.452  1.00 20.00    +0.118 HD
ATOM     95 H95  LIG A   1      21.282  17.602   6.599  1.00 20.00    +0.064 H 
ATOM     96 H96  LIG A   1      21.924  19.877   7.124  1.00 20.00    +0.063 H 
ATOM     97 H97  LIG A   1      21.219  22.367  12.965  1.00 20.00    +0.068 H 
ENDROOT
TORSDOF 0
                                                                                                    
ENDMDL
MODEL 5
REMARK VINA RESULT:    -9.890     14.462     17.698
REMARK INTER + INTRA:          -9.890
REMARK INTER:                  -9.890
REMARK INTRA:                   0.000
REMARK UNBOUND:                 0.000
ROOT
ATOM      1 C1   LIG A   1      20.789  26.337  11.426  1.00 20.00    -0.044 C 
ATOM      2 C2   LIG A   1      21.203  24.839  11.334  1.00 20.00    +0.047 C 
ATOM      3 C3   LIG A   1      22.731  24.776  11.577  1.00 20.00    -0.044 C 
ATOM      4 C4   LIG A   1      20.466  24.125  12.508  1.00 20.00    -0.006 C 
ATOM      5 C5   LIG A   1      19.954  22.725  12.170  1.00 20.00    +0.058 C 
ATOM      6 O6   LIG A   1      19.829  21.956  13.374  1.00 20.00    -0.393 OA
ATOM      7 C7   LIG A   1      20.886  22.016  11.205  1.00 20.00    -0.006 C 
ATOM      8 C8   LIG A   1      20.967  22.776   9.853  1.00 20.00    +0.047 C 
ATOM      9 C9   LIG A   1      22.292  22.351   9.167  1.00 20.00    -0.044 C 
ATOM     10 C10  LIG A   1      19.801  22.272   8.958  1.00 20.00    -0.044 C 
ATOM     11 N11  LIG A   1      20.752  24.234  10.061  1.00 20.00    -0.144 NA
ATOM     12 O12  LIG A   1      21.230  24.981   8.933  1.00 20.00    -0.120 OA
ATOM     13 N13  LIG A   1      23.893  28.955  16.378  1.00 20.00    -0.289 NA
ATOM     14 C14  LIG A   1      23.067  29.705  17.030  1.00 20.00    +0.092 C 
ATOM     15 N15  LIG A   1      22.252  29.189  17.992  1.00 20.00    -0.388 NA
ATOM     16 C16  LIG A   1      23.031  31.186  16.712  1.00 20.00    +0.022 C 
ATOM     17 C17  LIG A   1      21.725  31.639  16.061  1.00 20.00    +0.022 C 
ATOM     18 N18  LIG A   1      21.509  31.021  14.748  1.00 20.00    -0.384 NA
ATOM     19 C19  LIG A   1      20.719  29.863  14.698  1.00 20.00    +0.038 A 
ATOM     20 C20  LIG A   1      19.458  29.795  15.307  1.00 20.00    -0.038 A 
ATOM     21 C21  LIG A   1      18.681  28.636  15.230  1.00 20.00    -0.045 A 
ATOM     22 C22  LIG A   1      19.159  27.535  14.518  1.00 20.00    +0.065 A 
ATOM     23 C23  LIG A   1      18.377  26.295  14.425  1.00 20.00    +0.193 C 
ATOM     24 O24  LIG A   1      17.295  26.162  14.982  1.00 20.00    -0.289 OA
ATOM     25 C25  LIG A   1      18.963  25.205  13.630  1.00 20.00    +0.030 C 
ATOM     26 C26  LIG A   1      20.155  25.388  13.043  1.00 20.00    +0.138 C 
ATOM     27 C27  LIG A   1      20.795  24.333  12.232  1.00 20.00    +0.017 A 
ATOM     28 C28  LIG A   1      22.176  24.131  12.300  1.00 20.00    -0.049 A 
ATOM     29 C29  LIG A   1      22.797  23.145  11.522  1.00 20.00    -0.038 A 
ATOM     30 C30  LIG A   1      22.062  22.316  10.665  1.00 20.00    +0.034 A 
ATOM     31 N31  LIG A   1      22.756  21.407   9.867  1.00 20.00    -0.385 NA
ATOM     32 C32  LIG A   1      22.071  20.326   9.159  1.00 20.00    +0.016 C 
ATOM     33 C33  LIG A   1      21.726  20.762   7.734  1.00 20.00    -0.023 C 
ATOM     34 C34  LIG A   1      20.864  19.735   6.998  1.00 20.00    -0.003 C 
ATOM     35 N35  LIG A   1      21.575  18.469   6.831  1.00 20.00    -0.317 NA
ATOM     36 C36  LIG A   1      20.735  17.401   6.285  1.00 20.00    -0.005 C 
ATOM     37 C37  LIG A   1      20.397  17.587   4.802  1.00 20.00    -0.039 C 
ATOM     38 C38  LIG A   1      19.526  16.457   4.240  1.00 20.00    -0.040 C 
ATOM     39 C39  LIG A   1      20.254  15.116   4.157  1.00 20.00    -0.008 C 
ATOM     40 N40  LIG A   1      19.404  14.098   3.548  1.00 20.00    -0.330 NA
ATOM     41 C41  LIG A   1      20.690  22.554  10.567  1.00 20.00    -0.038 A 
ATOM     42 C42  LIG A   1      20.061  23.538  11.343  1.00 20.00    -0.049 A 
ATOM     43 O43  LIG A   1      20.903  26.551  13.149  1.00 20.00    -0.456 OA
ATOM     44 C44  LIG A   1      20.390  27.596  13.876  1.00 20.00    +0.140 A 
ATOM     45 C45  LIG A   1      21.162  28.756  13.958  1.00 20.00    +0.005 A 
ATOM     46 H46  LIG A   1      20.975  26.731  12.432  1.00 20.00    +0.025 H 
ATOM     47 H47  LIG A   1      19.721  26.468  11.216  1.00 20.00    +0.025 H 
ATOM     48 H48  LIG A   1      21.352  26.967  10.729  1.00 20.00    +0.025 H 
ATOM     49 H49  LIG A   1      23.296  25.247  10.764  1.00 20.00    +0.025 H 
ATOM     50 H50  LIG A   1      22.998  25.310  12.497  1.00 20.00    +0.025 H 
ATOM     51 H51  LIG A   1      23.098  23.754  11.694  1.00 20.00    +0.025 H 
ATOM     52 H52  LIG A   1      21.119  24.076  13.390  1.00 20.00    +0.031 H 
ATOM     53 H53  LIG A   1      19.595  24.706  12.838  1.00 20.00    +0.031 H 
ATOM     54 H54  LIG A   1      18.949  22.791  11.736  1.00 20.00    +0.060 H 
ATOM     55 H55  LIG A   1      19.219  22.458  13.942  1.00 20.00    +0.210 HD
ATOM     56 H56  LIG A   1      21.874  21.920  11.673  1.00 20.00    +0.031 H 
ATOM     57 H57  LIG A   1      20.549  20.981  11.056  1.00 20.00    +0.031 H 
ATOM     58 H58  LIG A   1      22.370  21.258   9.130  1.00 20.00    +0.025 H 
ATOM     59 H59  LIG A   1      22.357  22.705   8.132  1.00 20.00    +0.025 H 
ATOM     60 H60  LIG A   1      23.172  22.719   9.702  1.00 20.00    +0.025 H 
ATOM     61 H61  LIG A   1      19.846  21.184   8.828  1.00 20.00    +0.025 H 
ATOM     62 H62  LIG A   1      19.835  22.717   7.957  1.00 20.00    +0.025 H 
ATOM     63 H63  LIG A   1      18.825  22.510   9.394  1.00 20.00    +0.025 H 
ATOM     64 H64  LIG A   1      23.832  27.995  16.723  1.00 20.00    +0.189 HD
ATOM     65 H65  LIG A   1      22.065  28.196  17.924  1.00 20.00    +0.157 HD
ATOM     66 H66  LIG A   1      21.415  29.717  18.214  1.00 20.00    +0.157 HD
ATOM     67 H67  LIG A   1      23.880  31.431  16.062  1.00 20.00    +0.037 H 
ATOM     68 H68  LIG A   1      23.175  31.733  17.652  1.00 20.00    +0.037 H 
ATOM     69 H69  LIG A   1      20.883  31.491  16.744  1.00 20.00    +0.049 H 
ATOM     70 H70  LIG A   1      21.791  32.723  15.896  1.00 20.00    +0.049 H 
ATOM     71 H71  LIG A   1      22.399  30.878  14.265  1.00 20.00    +0.160 HD
ATOM     72 H72  LIG A   1      19.050  30.658  15.827  1.00 20.00    +0.064 H 
ATOM     73 H73  LIG A   1      17.706  28.599  15.710  1.00 20.00    +0.063 H 
ATOM     74 H74  LIG A   1      18.390  24.290  13.569  1.00 20.00    +0.070 H 
ATOM     75 H75  LIG A   1      22.793  24.743  12.955  1.00 20.00    +0.063 H 
ATOM     76 H76  LIG A   1      23.876  23.036  11.587  1.00 20.00    +0.064 H 
ATOM     77 H77  LIG A   1      23.629  21.104  10.295  1.00 20.00    +0.160 HD
ATOM     78 H78  LIG A   1      22.757  19.471   9.115  1.00 20.00    +0.049 H 
ATOM     79 H79  LIG A   1      21.188  19.978   9.708  1.00 20.00    +0.049 H 
ATOM     80 H80  LIG A   1      22.649  20.953   7.172  1.00 20.00    +0.030 H 
ATOM     81 H81  LIG A   1      21.181  21.714   7.752  1.00 20.00    +0.030 H 
ATOM     82 H82  LIG A   1      20.596  20.151   6.021  1.00 20.00    +0.043 H 
ATOM     83 H83  LIG A   1      19.935  19.581   7.561  1.00 20.00    +0.043 H 
ATOM     84 H84  LIG A   1      22.389  18.608   6.232  1.00 20.00    +0.122 HD
ATOM     85 H85  LIG A   1      21.293  16.469   6.416  1.00 20.00    +0.043 H 
ATOM     86 H86  LIG A   1      19.818  17.296   6.880  1.00 20.00    +0.043 H 
ATOM     87 H87  LIG A   1      19.847  18.525   4.662  1.00 20.00    +0.028 H 
ATOM     88 H88  LIG A   1      21.320  17.668   4.213  1.00 20.00    +0.028 H 
ATOM     89 H89  LIG A   1      19.201  16.752   3.235  1.00 20.00    +0.028 H 
ATOM     90 H90  LIG A   1      18.619  16.359   4.847  1.00 20.00    +0.028 H 
ATOM     91 H91  LIG A   1      20.547  14.768   5.151  1.00 20.00    +0.043 H 
ATOM     92 H92  LIG A   1      21.168  15.216   3.562  1.00 20.00    +0.043 H 
ATOM     93 H93  LIG A   1      18.551  13.987   4.098  1.00 20.00    +0.118 HD
ATOM     94 H94  LIG A   1      19.103  14.406   2.625  1.00 20.00    +0.118 HD
ATOM     95 H95  LIG A   1      20.073  21.986   9.877  1.00 20.00    +0.064 H 
ATOM     96 H96  LIG A   1      18.991  23.687  11.218  1.00 20.00    +0.063 H 
ATOM     97 H97  LIG A   1      22.126  28.784  13.455  1.00 20.00    +0.068 H 
ENDROOT
TORSDOF 0
                                                                                                    
ENDMDL
MODEL 6
REMARK VINA RESULT:    -9.759     14.647     17.088
REMARK INTER + INTRA:          -9.759
REMARK INTER:                  -9.759
REMARK INTRA:                   0.000
REMARK UNBOUND:                 0.000
ROOT
ATOM      1 C1   LIG A   1      19.498  20.069   8.981  1.00 20.00    -0.044 C 
ATOM      2 C2   LIG A   1      20.797  20.756   8.468  1.00 20.00    +0.047 C 
ATOM      3 C3   LIG A   1      21.876  20.559   9.562  1.00 20.00    -0.044 C 
ATOM      4 C4   LIG A   1      21.214  19.968   7.188  1.00 20.00    -0.006 C 
ATOM      5 C5   LIG A   1      21.786  20.842   6.071  1.00 20.00    +0.058 C 
ATOM      6 O6   LIG A   1      22.634  20.049   5.229  1.00 20.00    -0.393 OA
ATOM      7 C7   LIG A   1      22.572  22.010   6.635  1.00 20.00    -0.006 C 
ATOM      8 C8   LIG A   1      21.656  22.942   7.475  1.00 20.00    +0.047 C 
ATOM      9 C9   LIG A   1      22.574  23.741   8.436  1.00 20.00    -0.044 C 
ATOM     10 C10  LIG A   1      21.005  23.964   6.502  1.00 20.00    -0.044 C 
ATOM     11 N11  LIG A   1      20.546  22.165   8.091  1.00 20.00    -0.144 NA
ATOM     12 O12  LIG A   1      19.958  22.897   9.176  1.00 20.00    -0.120 OA
ATOM     13 N13  LIG A   1      21.129  14.482  11.653  1.00 20.00    -0.289 NA
ATOM     14 C14  LIG A   1      20.281  13.583  11.275  1.00 20.00    +0.092 C 
ATOM     15 N15  LIG A   1      20.441  12.910  10.101  1.00 20.00    -0.388 NA
ATOM     16 C16  LIG A   1      19.102  13.278  12.176  1.00 20.00    +0.022 C 
ATOM     17 C17  LIG A   1      17.756  13.691  11.583  1.00 20.00    +0.022 C 
ATOM     18 N18  LIG A   1      17.650  15.142  11.391  1.00 20.00    -0.384 NA
ATOM     19 C19  LIG A   1      17.965  15.653  10.123  1.00 20.00    +0.038 A 
ATOM     20 C20  LIG A   1      17.416  15.123   8.948  1.00 20.00    -0.038 A 
ATOM     21 C21  LIG A   1      17.732  15.661   7.697  1.00 20.00    -0.045 A 
ATOM     22 C22  LIG A   1      18.592  16.756   7.618  1.00 20.00    +0.065 A 
ATOM     23 C23  LIG A   1      18.958  17.339   6.321  1.00 20.00    +0.193 C 
ATOM     24 O24  LIG A   1      18.551  16.883   5.261  1.00 20.00    -0.289 OA
ATOM     25 C25  LIG A   1      19.854  18.506   6.353  1.00 20.00    +0.030 C 
ATOM     26 C26  LIG A   1      20.285  18.970   7.535  1.00 20.00    +0.138 C 
ATOM     27 C27  LIG A   1      21.185  20.137   7.633  1.00 20.00    +0.017 A 
ATOM     28 C28  LIG A   1      22.215  20.156   8.577  1.00 20.00    -0.049 A 
ATOM     29 C29  LIG A   1      23.063  21.266   8.691  1.00 20.00    -0.038 A 
ATOM     30 C30  LIG A   1      22.925  22.384   7.859  1.00 20.00    +0.034 A 
ATOM     31 N31  LIG A   1      23.758  23.481   8.080  1.00 20.00    -0.385 NA
ATOM     32 C32  LIG A   1      23.878  24.564   7.104  1.00 20.00    +0.016 C 
ATOM     33 C33  LIG A   1      22.903  25.692   7.445  1.00 20.00    -0.023 C 
ATOM     34 C34  LIG A   1      22.865  26.780   6.370  1.00 20.00    -0.003 C 
ATOM     35 N35  LIG A   1      24.161  27.442   6.240  1.00 20.00    -0.317 NA
ATOM     36 C36  LIG A   1      24.226  28.372   5.111  1.00 20.00    -0.005 C 
ATOM     37 C37  LIG A   1      23.415  29.655   5.328  1.00 20.00    -0.039 C 
ATOM     38 C38  LIG A   1      23.499  30.624   4.142  1.00 20.00    -0.040 C 
ATOM     39 C39  LIG A   1      24.886  31.240   3.962  1.00 20.00    -0.008 C 
ATOM     40 N40  LIG A   1      24.889  32.207   2.869  1.00 20.00    -0.330 NA
ATOM     41 C41  LIG A   1      21.865  22.377   6.951  1.00 20.00    -0.038 A 
ATOM     42 C42  LIG A   1      21.012  21.271   6.829  1.00 20.00    -0.049 A 
ATOM     43 O43  LIG A   1      19.958  18.405   8.759  1.00 20.00    -0.456 OA
ATOM     44 C44  LIG A   1      19.119  17.319   8.775  1.00 20.00    +0.140 A 
ATOM     45 C45  LIG A   1      18.801  16.776  10.020  1.00 20.00    +0.005 A 
ATOM     46 H46  LIG A   1      19.649  18.989   9.098  1.00 20.00    +0.025 H 
ATOM     47 H47  LIG A   1      18.669  20.208   8.277  1.00 20.00    +0.025 H 
ATOM     48 H48  LIG A   1      19.182  20.453   9.957  1.00 20.00    +0.025 H 
ATOM     49 H49  LIG A   1      21.638  21.113  10.477  1.00 20.00    +0.025 H 
ATOM     50 H50  LIG A   1      21.951  19.501   9.844  1.00 20.00    +0.025 H 
ATOM     51 H51  LIG A   1      22.871  20.864   9.232  1.00 20.00    +0.025 H 
ATOM     52 H52  LIG A   1      21.934  19.181   7.447  1.00 20.00    +0.031 H 
ATOM     53 H53  LIG A   1      20.356  19.432   6.759  1.00 20.00    +0.031 H 
ATOM     54 H54  LIG A   1      20.972  21.212   5.435  1.00 20.00    +0.060 H 
ATOM     55 H55  LIG A   1      22.072  19.327   4.898  1.00 20.00    +0.210 HD
ATOM     56 H56  LIG A   1      23.406  21.621   7.232  1.00 20.00    +0.031 H 
ATOM     57 H57  LIG A   1      23.052  22.563   5.816  1.00 20.00    +0.031 H 
ATOM     58 H58  LIG A   1      23.391  24.215   7.880  1.00 20.00    +0.025 H 
ATOM     59 H59  LIG A   1      22.037  24.546   8.951  1.00 20.00    +0.025 H 
ATOM     60 H60  LIG A   1      23.030  23.104   9.198  1.00 20.00    +0.025 H 
ATOM     61 H61  LIG A   1      21.768  24.521   5.946  1.00 20.00    +0.025 H 
ATOM     62 H62  LIG A   1      20.394  24.701   7.035  1.00 20.00    +0.025 H 
ATOM     63 H63  LIG A   1      20.360  23.469   5.767  1.00 20.00    +0.025 H 
ATOM     64 H64  LIG A   1      21.884  14.552  10.968  1.00 20.00    +0.189 HD
ATOM     65 H65  LIG A   1      21.011  13.372   9.403  1.00 20.00    +0.157 HD
ATOM     66 H66  LIG A   1      19.610  12.494   9.696  1.00 20.00    +0.157 HD
ATOM     67 H67  LIG A   1      19.256  13.774  13.143  1.00 20.00    +0.037 H 
ATOM     68 H68  LIG A   1      19.097  12.197  12.365  1.00 20.00    +0.037 H 
ATOM     69 H69  LIG A   1      17.550  13.125  10.669  1.00 20.00    +0.049 H 
ATOM     70 H70  LIG A   1      16.973  13.405  12.296  1.00 20.00    +0.049 H 
ATOM     71 H71  LIG A   1      18.158  15.641  12.124  1.00 20.00    +0.160 HD
ATOM     72 H72  LIG A   1      16.707  14.300   8.994  1.00 20.00    +0.064 H 
ATOM     73 H73  LIG A   1      17.297  15.236   6.795  1.00 20.00    +0.063 H 
ATOM     74 H74  LIG A   1      20.128  18.931   5.396  1.00 20.00    +0.070 H 
ATOM     75 H75  LIG A   1      22.370  19.310   9.244  1.00 20.00    +0.063 H 
ATOM     76 H76  LIG A   1      23.837  21.250   9.454  1.00 20.00    +0.064 H 
ATOM     77 H77  LIG A   1      24.655  23.211   8.479  1.00 20.00    +0.160 HD
ATOM     78 H78  LIG A   1      24.903  24.948   7.160  1.00 20.00    +0.049 H 
ATOM     79 H79  LIG A   1      23.746  24.202   6.079  1.00 20.00    +0.049 H 
ATOM     80 H80  LIG A   1      23.169  26.131   8.416  1.00 20.00    +0.030 H 
ATOM     81 H81  LIG A   1      21.888  25.293   7.562  1.00 20.00    +0.030 H 
ATOM     82 H82  LIG A   1      22.093  27.506   6.646  1.00 20.00    +0.043 H 
ATOM     83 H83  LIG A   1      22.569  26.327   5.416  1.00 20.00    +0.043 H 
ATOM     84 H84  LIG A   1      24.384  27.935   7.106  1.00 20.00    +0.122 HD
ATOM     85 H85  LIG A   1      25.281  28.628   4.978  1.00 20.00    +0.043 H 
ATOM     86 H86  LIG A   1      23.913  27.869   4.186  1.00 20.00    +0.043 H 
ATOM     87 H87  LIG A   1      22.358  29.405   5.473  1.00 20.00    +0.028 H 
ATOM     88 H88  LIG A   1      23.751  30.161   6.242  1.00 20.00    +0.028 H 
ATOM     89 H89  LIG A   1      22.770  31.425   4.311  1.00 20.00    +0.028 H 
ATOM     90 H90  LIG A   1      23.192  30.108   3.226  1.00 20.00    +0.028 H 
ATOM     91 H91  LIG A   1      25.630  30.471   3.740  1.00 20.00    +0.043 H 
ATOM     92 H92  LIG A   1      25.200  31.744   4.881  1.00 20.00    +0.043 H 
ATOM     93 H93  LIG A   1      24.606  31.748   2.002  1.00 20.00    +0.118 HD
ATOM     94 H94  LIG A   1      24.191  32.928   3.044  1.00 20.00    +0.118 HD
ATOM     95 H95  LIG A   1      21.667  23.237   6.318  1.00 20.00    +0.064 H 
ATOM     96 H96  LIG A   1      20.196  21.326   6.112  1.00 20.00    +0.063 H 
ATOM     97 H97  LIG A   1      19.227  17.226  10.914  1.00 20.00    +0.068 H 
ENDROOT
TORSDOF 0
                                                                                                    
ENDMDL
MODEL 7
REMARK VINA RESULT:    -9.681     13.538     15.437
REMARK INTER + INTRA:          -9.681
REMARK INTER:                  -9.681
REMARK INTRA:                   0.000
REMARK UNBOUND:                 0.000
ROOT
ATOM      1 C1   LIG A   1      19.990  20.390   7.821  1.00 20.00    -0.044 C 
ATOM      2 C2   LIG A   1      20.418  20.669   9.292  1.00 20.00    +0.047 C 
ATOM      3 C3   LIG A   1      19.214  20.294  10.191  1.00 20.00    -0.044 C 
ATOM      4 C4   LIG A   1      21.598  19.692   9.580  1.00 20.00    -0.006 C 
ATOM      5 C5   LIG A   1      22.707  20.286  10.449  1.00 20.00    +0.058 C 
ATOM      6 O6   LIG A   1      23.411  19.229  11.116  1.00 20.00    -0.393 OA
ATOM      7 C7   LIG A   1      22.146  21.254  11.472  1.00 20.00    -0.006 C 
ATOM      8 C8   LIG A   1      21.460  22.461  10.776  1.00 20.00    +0.047 C 
ATOM      9 C9   LIG A   1      20.467  23.075  11.797  1.00 20.00    -0.044 C 
ATOM     10 C10  LIG A   1      22.555  23.529  10.498  1.00 20.00    -0.044 C 
ATOM     11 N11  LIG A   1      20.907  22.056   9.455  1.00 20.00    -0.144 NA
ATOM     12 O12  LIG A   1      19.932  23.007   9.002  1.00 20.00    -0.120 OA
ATOM     13 N13  LIG A   1      16.822  14.826   7.693  1.00 20.00    -0.289 NA
ATOM     14 C14  LIG A   1      17.223  14.150   6.668  1.00 20.00    +0.092 C 
ATOM     15 N15  LIG A   1      18.330  13.358   6.731  1.00 20.00    -0.388 NA
ATOM     16 C16  LIG A   1      16.422  14.241   5.384  1.00 20.00    +0.022 C 
ATOM     17 C17  LIG A   1      17.169  14.937   4.247  1.00 20.00    +0.022 C 
ATOM     18 N18  LIG A   1      17.462  16.343   4.546  1.00 20.00    -0.384 NA
ATOM     19 C19  LIG A   1      18.724  16.642   5.083  1.00 20.00    +0.038 A 
ATOM     20 C20  LIG A   1      19.911  16.173   4.504  1.00 20.00    -0.038 A 
ATOM     21 C21  LIG A   1      21.156  16.499   5.047  1.00 20.00    -0.045 A 
ATOM     22 C22  LIG A   1      21.221  17.321   6.172  1.00 20.00    +0.065 A 
ATOM     23 C23  LIG A   1      22.511  17.674   6.779  1.00 20.00    +0.193 C 
ATOM     24 O24  LIG A   1      23.575  17.249   6.347  1.00 20.00    -0.289 OA
ATOM     25 C25  LIG A   1      22.467  18.566   7.948  1.00 20.00    +0.030 C 
ATOM     26 C26  LIG A   1      21.280  19.004   8.395  1.00 20.00    +0.138 C 
ATOM     27 C27  LIG A   1      21.170  19.901   9.563  1.00 20.00    +0.017 A 
ATOM     28 C28  LIG A   1      20.133  19.733  10.486  1.00 20.00    -0.049 A 
ATOM     29 C29  LIG A   1      20.008  20.590  11.587  1.00 20.00    -0.038 A 
ATOM     30 C30  LIG A   1      20.919  21.629  11.817  1.00 20.00    +0.034 A 
ATOM     31 N31  LIG A   1      20.689  22.486  12.893  1.00 20.00    -0.385 NA
ATOM     32 C32  LIG A   1      21.715  23.411  13.372  1.00 20.00    +0.016 C 
ATOM     33 C33  LIG A   1      21.544  24.779  12.710  1.00 20.00    -0.023 C 
ATOM     34 C34  LIG A   1      22.684  25.741  13.046  1.00 20.00    -0.003 C 
ATOM     35 N35  LIG A   1      22.729  26.030  14.478  1.00 20.00    -0.317 NA
ATOM     36 C36  LIG A   1      23.904  26.809  14.874  1.00 20.00    -0.005 C 
ATOM     37 C37  LIG A   1      23.849  28.273  14.421  1.00 20.00    -0.039 C 
ATOM     38 C38  LIG A   1      25.080  29.080  14.852  1.00 20.00    -0.040 C 
ATOM     39 C39  LIG A   1      25.164  29.295  16.362  1.00 20.00    -0.008 C 
ATOM     40 N40  LIG A   1      26.311  30.129  16.707  1.00 20.00    -0.330 NA
ATOM     41 C41  LIG A   1      21.924  21.818  10.866  1.00 20.00    -0.038 A 
ATOM     42 C42  LIG A   1      22.057  20.965   9.761  1.00 20.00    -0.049 A 
ATOM     43 O43  LIG A   1      20.061  18.652   7.836  1.00 20.00    -0.456 OA
ATOM     44 C44  LIG A   1      20.057  17.826   6.739  1.00 20.00    +0.140 A 
ATOM     45 C45  LIG A   1      18.816  17.496   6.193  1.00 20.00    +0.005 A 
ATOM     46 H46  LIG A   1      19.791  19.323   7.669  1.00 20.00    +0.025 H 
ATOM     47 H47  LIG A   1      20.779  20.678   7.116  1.00 20.00    +0.025 H 
ATOM     48 H48  LIG A   1      19.076  20.927   7.545  1.00 20.00    +0.025 H 
ATOM     49 H49  LIG A   1      18.364  20.969  10.041  1.00 20.00    +0.025 H 
ATOM     50 H50  LIG A   1      18.859  19.282   9.960  1.00 20.00    +0.025 H 
ATOM     51 H51  LIG A   1      19.464  20.300  11.254  1.00 20.00    +0.025 H 
ATOM     52 H52  LIG A   1      21.221  18.770  10.043  1.00 20.00    +0.031 H 
ATOM     53 H53  LIG A   1      22.073  19.362   8.646  1.00 20.00    +0.031 H 
ATOM     54 H54  LIG A   1      23.442  20.798   9.815  1.00 20.00    +0.060 H 
ATOM     55 H55  LIG A   1      23.748  18.652  10.410  1.00 20.00    +0.210 HD
ATOM     56 H56  LIG A   1      21.447  20.715  12.124  1.00 20.00    +0.031 H 
ATOM     57 H57  LIG A   1      22.948  21.589  12.144  1.00 20.00    +0.031 H 
ATOM     58 H58  LIG A   1      20.970  23.270  12.752  1.00 20.00    +0.025 H 
ATOM     59 H59  LIG A   1      20.059  24.033  11.456  1.00 20.00    +0.025 H 
ATOM     60 H60  LIG A   1      19.625  22.410  12.007  1.00 20.00    +0.025 H 
ATOM     61 H61  LIG A   1      23.068  23.818  11.422  1.00 20.00    +0.025 H 
ATOM     62 H62  LIG A   1      22.131  24.443  10.066  1.00 20.00    +0.025 H 
ATOM     63 H63  LIG A   1      23.315  23.156   9.803  1.00 20.00    +0.025 H 
ATOM     64 H64  LIG A   1      17.433  14.638   8.490  1.00 20.00    +0.189 HD
ATOM     65 H65  LIG A   1      18.997  13.593   7.456  1.00 20.00    +0.157 HD
ATOM     66 H66  LIG A   1      18.787  13.139   5.853  1.00 20.00    +0.157 HD
ATOM     67 H67  LIG A   1      15.479  14.762   5.590  1.00 20.00    +0.037 H 
ATOM     68 H68  LIG A   1      16.166  13.219   5.077  1.00 20.00    +0.037 H 
ATOM     69 H69  LIG A   1      18.061  14.366   3.967  1.00 20.00    +0.049 H 
ATOM     70 H70  LIG A   1      16.518  14.928   3.363  1.00 20.00    +0.049 H 
ATOM     71 H71  LIG A   1      16.717  16.755   5.111  1.00 20.00    +0.160 HD
ATOM     72 H72  LIG A   1      19.881  15.569   3.600  1.00 20.00    +0.064 H 
ATOM     73 H73  LIG A   1      22.067  16.124   4.586  1.00 20.00    +0.063 H 
ATOM     74 H74  LIG A   1      23.417  18.820   8.398  1.00 20.00    +0.070 H 
ATOM     75 H75  LIG A   1      19.402  18.937  10.358  1.00 20.00    +0.063 H 
ATOM     76 H76  LIG A   1      19.174  20.440  12.269  1.00 20.00    +0.064 H 
ATOM     77 H77  LIG A   1      20.189  22.028  13.652  1.00 20.00    +0.160 HD
ATOM     78 H78  LIG A   1      21.585  23.519  14.455  1.00 20.00    +0.049 H 
ATOM     79 H79  LIG A   1      22.724  23.008  13.227  1.00 20.00    +0.049 H 
ATOM     80 H80  LIG A   1      20.581  25.216  13.007  1.00 20.00    +0.030 H 
ATOM     81 H81  LIG A   1      21.501  24.670  11.619  1.00 20.00    +0.030 H 
ATOM     82 H82  LIG A   1      22.531  26.665  12.477  1.00 20.00    +0.043 H 
ATOM     83 H83  LIG A   1      23.632  25.299  12.714  1.00 20.00    +0.043 H 
ATOM     84 H84  LIG A   1      21.880  26.522  14.757  1.00 20.00    +0.122 HD
ATOM     85 H85  LIG A   1      23.950  26.769  15.967  1.00 20.00    +0.043 H 
ATOM     86 H86  LIG A   1      24.821  26.327  14.511  1.00 20.00    +0.043 H 
ATOM     87 H87  LIG A   1      23.792  28.320  13.328  1.00 20.00    +0.028 H 
ATOM     88 H88  LIG A   1      22.941  28.752  14.808  1.00 20.00    +0.028 H 
ATOM     89 H89  LIG A   1      25.034  30.054  14.352  1.00 20.00    +0.028 H 
ATOM     90 H90  LIG A   1      25.987  28.583  14.490  1.00 20.00    +0.028 H 
ATOM     91 H91  LIG A   1      25.263  28.343  16.889  1.00 20.00    +0.043 H 
ATOM     92 H92  LIG A   1      24.253  29.779  16.728  1.00 20.00    +0.043 H 
ATOM     93 H93  LIG A   1      27.170  29.686  16.380  1.00 20.00    +0.118 HD
ATOM     94 H94  LIG A   1      26.251  31.019  16.215  1.00 20.00    +0.118 HD
ATOM     95 H95  LIG A   1      22.627  22.642  10.954  1.00 20.00    +0.064 H 
ATOM     96 H96  LIG A   1      22.852  21.168   9.047  1.00 20.00    +0.063 H 
ATOM     97 H97  LIG A   1      17.915  17.895   6.654  1.00 20.00    +0.068 H 
ENDROOT
TORSDOF 0
                                                                                                    
ENDMDL
MODEL 8
REMARK VINA RESULT:    -9.624     13.782     15.398
REMARK INTER + INTRA:          -9.624
REMARK INTER:                  -9.624
REMARK INTRA:                   0.000
REMARK UNBOUND:                 0.000
ROOT
ATOM      1 C1   LIG A   1      21.430  18.144   7.667  1.00 20.00    -0.044 C 
ATOM      2 C2   LIG A   1      20.921  19.415   8.407  1.00 20.00    +0.047 C 
ATOM      3 C3   LIG A   1      20.100  20.237   7.382  1.00 20.00    -0.044 C 
ATOM      4 C4   LIG A   1      19.969  18.897   9.529  1.00 20.00    -0.006 C 
ATOM      5 C5   LIG A   1      20.061  19.678  10.840  1.00 20.00    +0.058 C 
ATOM      6 O6   LIG A   1      18.832  19.539  11.566  1.00 20.00    -0.393 OA
ATOM      7 C7   LIG A   1      20.344  21.146  10.587  1.00 20.00    -0.006 C 
ATOM      8 C8   LIG A   1      21.717  21.334   9.886  1.00 20.00    +0.047 C 
ATOM      9 C9   LIG A   1      21.685  22.714   9.180  1.00 20.00    -0.044 C 
ATOM     10 C10  LIG A   1      22.805  21.405  10.992  1.00 20.00    -0.044 C 
ATOM     11 N11  LIG A   1      22.037  20.150   9.041  1.00 20.00    -0.144 NA
ATOM     12 O12  LIG A   1      23.057  20.473   8.085  1.00 20.00    -0.120 OA
ATOM     13 N13  LIG A   1      16.644  15.898   4.052  1.00 20.00    -0.289 NA
ATOM     14 C14  LIG A   1      16.607  14.612   4.173  1.00 20.00    +0.092 C 
ATOM     15 N15  LIG A   1      15.929  14.018   5.195  1.00 20.00    -0.388 NA
ATOM     16 C16  LIG A   1      17.326  13.767   3.141  1.00 20.00    +0.022 C 
ATOM     17 C17  LIG A   1      18.530  13.012   3.700  1.00 20.00    +0.022 C 
ATOM     18 N18  LIG A   1      19.587  13.913   4.173  1.00 20.00    -0.384 NA
ATOM     19 C19  LIG A   1      19.602  14.235   5.539  1.00 20.00    +0.038 A 
ATOM     20 C20  LIG A   1      19.533  13.253   6.537  1.00 20.00    -0.038 A 
ATOM     21 C21  LIG A   1      19.567  13.596   7.891  1.00 20.00    -0.045 A 
ATOM     22 C22  LIG A   1      19.691  14.937   8.256  1.00 20.00    +0.065 A 
ATOM     23 C23  LIG A   1      19.717  15.338   9.669  1.00 20.00    +0.193 C 
ATOM     24 O24  LIG A   1      19.607  14.528  10.580  1.00 20.00    -0.289 OA
ATOM     25 C25  LIG A   1      19.875  16.774   9.943  1.00 20.00    +0.030 C 
ATOM     26 C26  LIG A   1      19.984  17.630   8.916  1.00 20.00    +0.138 C 
ATOM     27 C27  LIG A   1      20.144  19.083   9.127  1.00 20.00    +0.017 A 
ATOM     28 C28  LIG A   1      19.495  19.993   8.288  1.00 20.00    -0.049 A 
ATOM     29 C29  LIG A   1      19.655  21.374   8.467  1.00 20.00    -0.038 A 
ATOM     30 C30  LIG A   1      20.451  21.894   9.495  1.00 20.00    +0.034 A 
ATOM     31 N31  LIG A   1      20.622  23.276   9.566  1.00 20.00    -0.385 NA
ATOM     32 C32  LIG A   1      21.196  23.920  10.747  1.00 20.00    +0.016 C 
ATOM     33 C33  LIG A   1      22.703  24.105  10.568  1.00 20.00    -0.023 C 
ATOM     34 C34  LIG A   1      23.385  24.624  11.835  1.00 20.00    -0.003 C 
ATOM     35 N35  LIG A   1      22.894  25.952  12.195  1.00 20.00    -0.317 NA
ATOM     36 C36  LIG A   1      23.389  26.420  13.492  1.00 20.00    -0.005 C 
ATOM     37 C37  LIG A   1      24.874  26.802  13.478  1.00 20.00    -0.039 C 
ATOM     38 C38  LIG A   1      25.377  27.300  14.838  1.00 20.00    -0.040 C 
ATOM     39 C39  LIG A   1      24.783  28.648  15.245  1.00 20.00    -0.008 C 
ATOM     40 N40  LIG A   1      25.352  29.107  16.508  1.00 20.00    -0.330 NA
ATOM     41 C41  LIG A   1      21.134  20.979  10.299  1.00 20.00    -0.038 A 
ATOM     42 C42  LIG A   1      20.979  19.596  10.128  1.00 20.00    -0.049 A 
ATOM     43 O43  LIG A   1      19.937  17.254   7.582  1.00 20.00    -0.456 OA
ATOM     44 C44  LIG A   1      19.797  15.922   7.282  1.00 20.00    +0.140 A 
ATOM     45 C45  LIG A   1      19.761  15.573   5.931  1.00 20.00    +0.005 A 
ATOM     46 H46  LIG A   1      20.589  17.517   7.345  1.00 20.00    +0.025 H 
ATOM     47 H47  LIG A   1      22.063  17.530   8.319  1.00 20.00    +0.025 H 
ATOM     48 H48  LIG A   1      22.005  18.389   6.768  1.00 20.00    +0.025 H 
ATOM     49 H49  LIG A   1      20.731  20.643   6.583  1.00 20.00    +0.025 H 
ATOM     50 H50  LIG A   1      19.344  19.607   6.898  1.00 20.00    +0.025 H 
ATOM     51 H51  LIG A   1      19.563  21.069   7.842  1.00 20.00    +0.025 H 
ATOM     52 H52  LIG A   1      18.930  18.894   9.172  1.00 20.00    +0.031 H 
ATOM     53 H53  LIG A   1      20.183  17.848   9.773  1.00 20.00    +0.031 H 
ATOM     54 H54  LIG A   1      20.848  19.250  11.474  1.00 20.00    +0.060 H 
ATOM     55 H55  LIG A   1      18.713  18.584  11.700  1.00 20.00    +0.210 HD
ATOM     56 H56  LIG A   1      19.525  21.567   9.990  1.00 20.00    +0.031 H 
ATOM     57 H57  LIG A   1      20.307  21.700  11.536  1.00 20.00    +0.031 H 
ATOM     58 H58  LIG A   1      21.374  23.497   9.882  1.00 20.00    +0.025 H 
ATOM     59 H59  LIG A   1      22.670  23.009   8.799  1.00 20.00    +0.025 H 
ATOM     60 H60  LIG A   1      20.984  22.735   8.342  1.00 20.00    +0.025 H 
ATOM     61 H61  LIG A   1      22.590  22.208  11.707  1.00 20.00    +0.025 H 
ATOM     62 H62  LIG A   1      23.798  21.606  10.574  1.00 20.00    +0.025 H 
ATOM     63 H63  LIG A   1      22.868  20.470  11.560  1.00 20.00    +0.025 H 
ATOM     64 H64  LIG A   1      16.089  16.330   4.793  1.00 20.00    +0.189 HD
ATOM     65 H65  LIG A   1      15.774  14.594   6.014  1.00 20.00    +0.157 HD
ATOM     66 H66  LIG A   1      16.208  13.076   5.443  1.00 20.00    +0.157 HD
ATOM     67 H67  LIG A   1      17.638  14.412   2.310  1.00 20.00    +0.037 H 
ATOM     68 H68  LIG A   1      16.603  13.048   2.737  1.00 20.00    +0.037 H 
ATOM     69 H69  LIG A   1      18.212  12.293   4.462  1.00 20.00    +0.049 H 
ATOM     70 H70  LIG A   1      18.960  12.416   2.885  1.00 20.00    +0.049 H 
ATOM     71 H71  LIG A   1      19.626  14.757   3.598  1.00 20.00    +0.160 HD
ATOM     72 H72  LIG A   1      19.483  12.200   6.271  1.00 20.00    +0.064 H 
ATOM     73 H73  LIG A   1      19.512  12.821   8.652  1.00 20.00    +0.063 H 
ATOM     74 H74  LIG A   1      19.886  17.069  10.984  1.00 20.00    +0.070 H 
ATOM     75 H75  LIG A   1      18.859  19.643   7.478  1.00 20.00    +0.063 H 
ATOM     76 H76  LIG A   1      19.150  22.047   7.778  1.00 20.00    +0.064 H 
ATOM     77 H77  LIG A   1      19.823  23.784   9.191  1.00 20.00    +0.160 HD
ATOM     78 H78  LIG A   1      20.724  24.905  10.849  1.00 20.00    +0.049 H 
ATOM     79 H79  LIG A   1      20.954  23.372  11.665  1.00 20.00    +0.049 H 
ATOM     80 H80  LIG A   1      22.896  24.787   9.729  1.00 20.00    +0.030 H 
ATOM     81 H81  LIG A   1      23.172  23.151  10.295  1.00 20.00    +0.030 H 
ATOM     82 H82  LIG A   1      24.465  24.655  11.653  1.00 20.00    +0.043 H 
ATOM     83 H83  LIG A   1      23.206  23.914  12.652  1.00 20.00    +0.043 H 
ATOM     84 H84  LIG A   1      23.146  26.622  11.468  1.00 20.00    +0.122 HD
ATOM     85 H85  LIG A   1      22.791  27.299  13.754  1.00 20.00    +0.043 H 
ATOM     86 H86  LIG A   1      23.191  25.670  14.268  1.00 20.00    +0.043 H 
ATOM     87 H87  LIG A   1      25.478  25.929  13.204  1.00 20.00    +0.028 H 
ATOM     88 H88  LIG A   1      25.058  27.568  12.714  1.00 20.00    +0.028 H 
ATOM     89 H89  LIG A   1      26.468  27.391  14.779  1.00 20.00    +0.028 H 
ATOM     90 H90  LIG A   1      25.166  26.546  15.604  1.00 20.00    +0.028 H 
ATOM     91 H91  LIG A   1      23.699  28.578  15.363  1.00 20.00    +0.043 H 
ATOM     92 H92  LIG A   1      24.982  29.399  14.474  1.00 20.00    +0.043 H 
ATOM     93 H93  LIG A   1      25.167  28.420  17.240  1.00 20.00    +0.118 HD
ATOM     94 H94  LIG A   1      26.366  29.165  16.430  1.00 20.00    +0.118 HD
ATOM     95 H95  LIG A   1      21.813  21.317  11.076  1.00 20.00    +0.064 H 
ATOM     96 H96  LIG A   1      21.543  18.930  10.776  1.00 20.00    +0.063 H 
ATOM     97 H97  LIG A   1      19.839  16.358   5.182  1.00 20.00    +0.068 H 
ENDROOT
TORSDOF 0
                                                                                                    
ENDMDL
MODEL 9
REMARK VINA RESULT:    -9.441     13.831     17.811
REMARK INTER + INTRA:          -9.441
REMARK INTER:                  -9.441
REMARK INTRA:                   0.000
REMARK UNBOUND:                 0.000
ROOT
ATOM      1 C1   LIG A   1      22.384  21.514   9.448  1.00 20.00    -0.044 C 
ATOM      2 C2   LIG A   1      21.850  20.052   9.440  1.00 20.00    +0.047 C 
ATOM      3 C3   LIG A   1      22.995  19.149   9.962  1.00 20.00    -0.044 C 
ATOM      4 C4   LIG A   1      20.671  20.029  10.462  1.00 20.00    -0.006 C 
ATOM      5 C5   LIG A   1      19.492  19.151  10.041  1.00 20.00    +0.058 C 
ATOM      6 O6   LIG A   1      18.765  18.735  11.205  1.00 20.00    -0.393 OA
ATOM      7 C7   LIG A   1      19.962  17.933   9.268  1.00 20.00    -0.006 C 
ATOM      8 C8   LIG A   1      20.671  18.351   7.951  1.00 20.00    +0.047 C 
ATOM      9 C9   LIG A   1      21.578  17.168   7.524  1.00 20.00    -0.044 C 
ATOM     10 C10  LIG A   1      19.578  18.513   6.858  1.00 20.00    -0.044 C 
ATOM     11 N11  LIG A   1      21.323  19.679   8.109  1.00 20.00    -0.144 NA
ATOM     12 O12  LIG A   1      22.308  19.883   7.085  1.00 20.00    -0.120 OA
ATOM     13 N13  LIG A   1      25.662  22.404  14.877  1.00 20.00    -0.289 NA
ATOM     14 C14  LIG A   1      25.348  23.560  15.361  1.00 20.00    +0.092 C 
ATOM     15 N15  LIG A   1      24.255  23.719  16.159  1.00 20.00    -0.388 NA
ATOM     16 C16  LIG A   1      26.234  24.746  15.035  1.00 20.00    +0.022 C 
ATOM     17 C17  LIG A   1      25.555  25.791  14.152  1.00 20.00    +0.022 C 
ATOM     18 N18  LIG A   1      25.214  25.267  12.824  1.00 20.00    -0.384 NA
ATOM     19 C19  LIG A   1      23.913  24.779  12.635  1.00 20.00    +0.038 A 
ATOM     20 C20  LIG A   1      22.778  25.516  13.000  1.00 20.00    -0.038 A 
ATOM     21 C21  LIG A   1      21.492  25.015  12.786  1.00 20.00    -0.045 A 
ATOM     22 C22  LIG A   1      21.333  23.769  12.179  1.00 20.00    +0.065 A 
ATOM     23 C23  LIG A   1      19.996  23.204  11.950  1.00 20.00    +0.193 C 
ATOM     24 O24  LIG A   1      18.974  23.781  12.298  1.00 20.00    -0.289 OA
ATOM     25 C25  LIG A   1      19.941  21.895  11.282  1.00 20.00    +0.030 C 
ATOM     26 C26  LIG A   1      21.085  21.292  10.924  1.00 20.00    +0.138 C 
ATOM     27 C27  LIG A   1      21.095  19.977  10.250  1.00 20.00    +0.017 A 
ATOM     28 C28  LIG A   1      22.068  19.027  10.573  1.00 20.00    -0.049 A 
ATOM     29 C29  LIG A   1      22.099  17.784   9.928  1.00 20.00    -0.038 A 
ATOM     30 C30  LIG A   1      21.154  17.439   8.953  1.00 20.00    +0.034 A 
ATOM     31 N31  LIG A   1      21.291  16.214   8.302  1.00 20.00    -0.385 NA
ATOM     32 C32  LIG A   1      20.216  15.653   7.484  1.00 20.00    +0.016 C 
ATOM     33 C33  LIG A   1      20.407  16.046   6.018  1.00 20.00    -0.023 C 
ATOM     34 C34  LIG A   1      19.227  15.626   5.140  1.00 20.00    -0.003 C 
ATOM     35 N35  LIG A   1      19.076  14.173   5.113  1.00 20.00    -0.317 NA
ATOM     36 C36  LIG A   1      17.861  13.730   4.426  1.00 20.00    -0.005 C 
ATOM     37 C37  LIG A   1      17.919  13.909   2.905  1.00 20.00    -0.039 C 
ATOM     38 C38  LIG A   1      16.645  13.431   2.196  1.00 20.00    -0.040 C 
ATOM     39 C39  LIG A   1      16.452  11.917   2.256  1.00 20.00    -0.008 C 
ATOM     40 N40  LIG A   1      15.268  11.513   1.505  1.00 20.00    -0.330 NA
ATOM     41 C41  LIG A   1      20.214  18.411   8.603  1.00 20.00    -0.038 A 
ATOM     42 C42  LIG A   1      20.176  19.657   9.244  1.00 20.00    -0.049 A 
ATOM     43 O43  LIG A   1      22.347  21.815  11.161  1.00 20.00    -0.456 OA
ATOM     44 C44  LIG A   1      22.444  23.038  11.776  1.00 20.00    +0.140 A 
ATOM     45 C45  LIG A   1      23.726  23.544  11.994  1.00 20.00    +0.005 A 
ATOM     46 H46  LIG A   1      22.615  21.840  10.469  1.00 20.00    +0.025 H 
ATOM     47 H47  LIG A   1      21.641  22.212   9.043  1.00 20.00    +0.025 H 
ATOM     48 H48  LIG A   1      23.304  21.623   8.864  1.00 20.00    +0.025 H 
ATOM     49 H49  LIG A   1      23.840  19.115   9.266  1.00 20.00    +0.025 H 
ATOM     50 H50  LIG A   1      23.385  19.532  10.914  1.00 20.00    +0.025 H 
ATOM     51 H51  LIG A   1      22.671  18.123  10.149  1.00 20.00    +0.025 H 
ATOM     52 H52  LIG A   1      21.033  19.712  11.449  1.00 20.00    +0.031 H 
ATOM     53 H53  LIG A   1      20.269  21.038  10.622  1.00 20.00    +0.031 H 
ATOM     54 H54  LIG A   1      18.794  19.734   9.428  1.00 20.00    +0.060 H 
ATOM     55 H55  LIG A   1      18.489  19.556  11.648  1.00 20.00    +0.210 HD
ATOM     56 H56  LIG A   1      20.624  17.339   9.911  1.00 20.00    +0.031 H 
ATOM     57 H57  LIG A   1      19.109  17.272   9.064  1.00 20.00    +0.031 H 
ATOM     58 H58  LIG A   1      21.005  16.232   7.507  1.00 20.00    +0.025 H 
ATOM     59 H59  LIG A   1      21.990  17.301   6.517  1.00 20.00    +0.025 H 
ATOM     60 H60  LIG A   1      22.416  17.019   8.210  1.00 20.00    +0.025 H 
ATOM     61 H61  LIG A   1      18.995  17.591   6.743  1.00 20.00    +0.025 H 
ATOM     62 H62  LIG A   1      20.012  18.742   5.879  1.00 20.00    +0.025 H 
ATOM     63 H63  LIG A   1      18.875  19.316   7.105  1.00 20.00    +0.025 H 
ATOM     64 H64  LIG A   1      25.001  21.700  15.209  1.00 20.00    +0.189 HD
ATOM     65 H65  LIG A   1      23.534  23.014  16.062  1.00 20.00    +0.157 HD
ATOM     66 H66  LIG A   1      23.864  24.653  16.220  1.00 20.00    +0.157 HD
ATOM     67 H67  LIG A   1      27.150  24.382  14.553  1.00 20.00    +0.037 H 
ATOM     68 H68  LIG A   1      26.531  25.211  15.983  1.00 20.00    +0.037 H 
ATOM     69 H69  LIG A   1      24.697  26.232  14.669  1.00 20.00    +0.049 H 
ATOM     70 H70  LIG A   1      26.266  26.613  13.997  1.00 20.00    +0.049 H 
ATOM     71 H71  LIG A   1      25.910  24.586  12.515  1.00 20.00    +0.160 HD
ATOM     72 H72  LIG A   1      22.883  26.509  13.432  1.00 20.00    +0.064 H 
ATOM     73 H73  LIG A   1      20.623  25.601  13.077  1.00 20.00    +0.063 H 
ATOM     74 H74  LIG A   1      18.957  21.476  11.120  1.00 20.00    +0.070 H 
ATOM     75 H75  LIG A   1      22.822  19.241  11.329  1.00 20.00    +0.063 H 
ATOM     76 H76  LIG A   1      22.886  17.082  10.192  1.00 20.00    +0.064 H 
ATOM     77 H77  LIG A   1      21.746  15.515   8.885  1.00 20.00    +0.160 HD
ATOM     78 H78  LIG A   1      20.269  14.561   7.572  1.00 20.00    +0.049 H 
ATOM     79 H79  LIG A   1      19.228  15.940   7.862  1.00 20.00    +0.049 H 
ATOM     80 H80  LIG A   1      21.337  15.606   5.635  1.00 20.00    +0.030 H 
ATOM     81 H81  LIG A   1      20.528  17.132   5.930  1.00 20.00    +0.030 H 
ATOM     82 H82  LIG A   1      19.401  16.009   4.128  1.00 20.00    +0.043 H 
ATOM     83 H83  LIG A   1      18.314  16.099   5.522  1.00 20.00    +0.043 H 
ATOM     84 H84  LIG A   1      19.894  13.750   4.674  1.00 20.00    +0.122 HD
ATOM     85 H85  LIG A   1      17.740  12.668   4.662  1.00 20.00    +0.043 H 
ATOM     86 H86  LIG A   1      16.982  14.239   4.842  1.00 20.00    +0.043 H 
ATOM     87 H87  LIG A   1      18.051  14.970   2.662  1.00 20.00    +0.028 H 
ATOM     88 H88  LIG A   1      18.788  13.378   2.497  1.00 20.00    +0.028 H 
ATOM     89 H89  LIG A   1      16.707  13.745   1.148  1.00 20.00    +0.028 H 
ATOM     90 H90  LIG A   1      15.776  13.941   2.626  1.00 20.00    +0.028 H 
ATOM     91 H91  LIG A   1      16.335  11.577   3.288  1.00 20.00    +0.043 H 
ATOM     92 H92  LIG A   1      17.326  11.406   1.840  1.00 20.00    +0.043 H 
ATOM     93 H93  LIG A   1      14.442  11.975   1.888  1.00 20.00    +0.118 HD
ATOM     94 H94  LIG A   1      15.345  11.832   0.541  1.00 20.00    +0.118 HD
ATOM     95 H95  LIG A   1      19.491  18.228   7.813  1.00 20.00    +0.064 H 
ATOM     96 H96  LIG A   1      19.429  20.379   8.923  1.00 20.00    +0.063 H 
ATOM     97 H97  LIG A   1      24.584  22.955  11.678  1.00 20.00    +0.068 H 
ENDROOT
TORSDOF 0
                                                                                                    
ENDMDL
