ROOT
ATOM      1 C1   LIG A   1       4.211  -1.099  -1.387  1.00 20.00    -0.060 C 
ATOM      2 C2   LIG A   1       3.256   0.018  -0.920  1.00 20.00    -0.016 C 
ATOM      3 C3   LIG A   1       2.373   0.471  -2.128  1.00 20.00    -0.023 C 
ATOM      4 C4   LIG A   1       0.997  -0.137  -2.155  1.00 20.00    -0.047 A 
ATOM      5 C5   LIG A   1       0.802  -1.483  -2.440  1.00 20.00    -0.059 A 
ATOM      6 C6   LIG A   1      -0.380  -2.098  -2.042  1.00 20.00    -0.057 A 
ATOM      7 C7   LIG A   1      -1.351  -1.384  -1.306  1.00 20.00    -0.023 A 
ATOM      8 C8   LIG A   1      -1.239   0.020  -1.217  1.00 20.00    +0.027 A 
ATOM      9 C9   LIG A   1      -0.079   0.632  -1.701  1.00 20.00    -0.048 A 
ATOM     10 C10  LIG A   1      -2.226   0.884  -0.502  1.00 20.00    +0.194 C 
ATOM     11 O11  LIG A   1      -3.413   0.589  -0.440  1.00 20.00    -0.289 OA
ATOM     12 C12  LIG A   1      -1.799   2.157   0.114  1.00 20.00    +0.035 A 
ATOM     13 C13  LIG A   1      -2.237   3.342  -0.494  1.00 20.00    -0.050 A 
ATOM     14 C14  LIG A   1      -1.881   4.577   0.050  1.00 20.00    -0.061 A 
ATOM     15 C15  LIG A   1      -1.111   4.634   1.212  1.00 20.00    -0.061 A 
ATOM     16 C16  LIG A   1      -0.699   3.456   1.838  1.00 20.00    -0.049 A 
ATOM     17 C17  LIG A   1      -1.023   2.212   1.278  1.00 20.00    +0.051 A 
ATOM     18 C18  LIG A   1      -0.681   1.003   2.052  1.00 20.00    +0.261 C 
ATOM     19 O19  LIG A   1      -1.327   0.829   3.086  1.00 20.00    -0.269 OA
ATOM     20 N20  LIG A   1       0.333   0.129   1.609  1.00 20.00    -0.277 NA
ATOM     21 C21  LIG A   1       0.273  -1.209   2.229  1.00 20.00    +0.029 C 
ATOM     22 C22  LIG A   1      -0.463  -2.291   1.418  1.00 20.00    -0.034 C 
ATOM     23 C23  LIG A   1      -1.947  -2.016   1.071  1.00 20.00    -0.034 C 
ATOM     24 C24  LIG A   1      -2.287  -2.223  -0.434  1.00 20.00    +0.082 C 
ATOM     25 C25  LIG A   1      -3.753  -2.088  -0.810  1.00 20.00    +0.310 C 
ATOM     26 O26  LIG A   1      -4.199  -2.038  -1.948  1.00 20.00    -0.252 OA
ATOM     27 O27  LIG A   1      -4.596  -2.121   0.241  1.00 20.00    -0.481 OA
ATOM     28 C28  LIG A   1       1.460   0.606   0.911  1.00 20.00    +0.246 C 
ATOM     29 O29  LIG A   1       1.665   1.811   0.727  1.00 20.00    -0.273 OA
ATOM     30 C30  LIG A   1       2.524  -0.413   0.406  1.00 20.00    +0.088 C 
ATOM     31 N31  LIG A   1       3.559  -0.550   1.465  1.00 20.00    -0.320 NA
ATOM     32 C32  LIG A   1      -4.572  -1.051   1.447  1.00 20.00    -0.056 C 
ATOM     33 C33  LIG A   1      -4.731  -0.779  -0.038  1.00 20.00    -0.002 C 
ATOM     34 S34  LIG A   1      -3.147  -0.950  -0.911  1.00 20.00    -0.087 SA
ATOM     35 C35  LIG A   1      -2.399   0.592  -0.500  1.00 20.00    +0.205 C 
ATOM     36 O36  LIG A   1      -3.047   1.534  -0.055  1.00 20.00    -0.285 OA
ATOM     37 C37  LIG A   1      -0.879   0.660  -0.746  1.00 20.00    +0.074 C 
ATOM     38 N38  LIG A   1      -0.521   2.012  -1.237  1.00 20.00    -0.321 NA
ATOM     39 C39  LIG A   1      -0.140   0.367   0.569  1.00 20.00    -0.028 C 
ATOM     40 C40  LIG A   1       1.306  -0.114   0.399  1.00 20.00    -0.034 C 
ATOM     41 C41  LIG A   1       2.214   0.842  -0.375  1.00 20.00    +0.018 C 
ATOM     42 N42  LIG A   1       3.609   0.437  -0.246  1.00 20.00    -0.357 NA
ATOM     43 C43  LIG A   1       4.113  -0.621  -0.922  1.00 20.00    +0.185 C 
ATOM     44 N44  LIG A   1       3.499  -1.285  -1.829  1.00 20.00    -0.270 NA
ATOM     45 N45  LIG A   1       5.372  -0.893  -0.531  1.00 20.00    -0.370 NA
ATOM     46 H46  LIG A   1       4.974  -1.315  -0.631  1.00 20.00    +0.023 H 
ATOM     47 H47  LIG A   1       4.742  -0.803  -2.298  1.00 20.00    +0.023 H 
ATOM     48 H48  LIG A   1       3.671  -2.028  -1.595  1.00 20.00    +0.023 H 
ATOM     49 H49  LIG A   1       3.897   0.882  -0.691  1.00 20.00    +0.032 H 
ATOM     50 H50  LIG A   1       2.280   1.565  -2.085  1.00 20.00    +0.032 H 
ATOM     51 H51  LIG A   1       2.873   0.272  -3.084  1.00 20.00    +0.032 H 
ATOM     52 H52  LIG A   1       1.599  -2.085  -2.869  1.00 20.00    +0.063 H 
ATOM     53 H53  LIG A   1      -0.471  -3.176  -2.176  1.00 20.00    +0.063 H 
ATOM     54 H54  LIG A   1       0.071   1.706  -1.590  1.00 20.00    +0.063 H 
ATOM     55 H55  LIG A   1      -2.862   3.302  -1.384  1.00 20.00    +0.063 H 
ATOM     56 H56  LIG A   1      -2.216   5.497  -0.424  1.00 20.00    +0.062 H 
ATOM     57 H57  LIG A   1      -0.848   5.597   1.644  1.00 20.00    +0.062 H 
ATOM     58 H58  LIG A   1      -0.129   3.506   2.763  1.00 20.00    +0.063 H 
ATOM     59 H59  LIG A   1       1.285  -1.567   2.428  1.00 20.00    +0.050 H 
ATOM     60 H60  LIG A   1      -0.201  -1.145   3.215  1.00 20.00    +0.050 H 
ATOM     61 H61  LIG A   1      -0.436  -3.211   2.017  1.00 20.00    +0.029 H 
ATOM     62 H62  LIG A   1       0.126  -2.526   0.531  1.00 20.00    +0.029 H 
ATOM     63 H63  LIG A   1      -2.262  -1.026   1.406  1.00 20.00    +0.028 H 
ATOM     64 H64  LIG A   1      -2.557  -2.714   1.660  1.00 20.00    +0.028 H 
ATOM     65 H65  LIG A   1      -2.083  -3.287  -0.631  1.00 20.00    +0.047 H 
ATOM     66 H66  LIG A   1      -5.464  -1.921  -0.165  1.00 20.00    +0.296 HD
ATOM     67 H67  LIG A   1       2.059  -1.389   0.250  1.00 20.00    +0.057 H 
ATOM     68 H68  LIG A   1       3.134  -0.696   2.378  1.00 20.00    +0.119 HD
ATOM     69 H69  LIG A   1       4.056   0.341   1.546  1.00 20.00    +0.119 HD
ATOM     70 H70  LIG A   1      -5.540  -0.949   1.948  1.00 20.00    +0.024 H 
ATOM     71 H71  LIG A   1      -4.213  -2.069   1.627  1.00 20.00    +0.024 H 
ATOM     72 H72  LIG A   1      -3.879  -0.354   1.924  1.00 20.00    +0.024 H 
ATOM     73 H73  LIG A   1      -5.426  -1.510  -0.463  1.00 20.00    +0.038 H 
ATOM     74 H74  LIG A   1      -5.165   0.208  -0.208  1.00 20.00    +0.038 H 
ATOM     75 H75  LIG A   1      -0.597  -0.065  -1.518  1.00 20.00    +0.055 H 
ATOM     76 H76  LIG A   1      -0.976   2.165  -2.140  1.00 20.00    +0.119 HD
ATOM     77 H77  LIG A   1      -0.959   2.698  -0.614  1.00 20.00    +0.119 HD
ATOM     78 H78  LIG A   1      -0.151   1.258   1.213  1.00 20.00    +0.029 H 
ATOM     79 H79  LIG A   1      -0.679  -0.407   1.131  1.00 20.00    +0.029 H 
ATOM     80 H80  LIG A   1       1.724  -0.284   1.402  1.00 20.00    +0.029 H 
ATOM     81 H81  LIG A   1       1.298  -1.095  -0.095  1.00 20.00    +0.029 H 
ATOM     82 H82  LIG A   1       2.121   1.856   0.035  1.00 20.00    +0.049 H 
ATOM     83 H83  LIG A   1       1.938   0.886  -1.434  1.00 20.00    +0.049 H 
ATOM     84 H84  LIG A   1       3.949   0.502   0.704  1.00 20.00    +0.163 HD
ATOM     85 H85  LIG A   1       4.094  -2.042  -2.166  1.00 20.00    +0.191 HD
ATOM     86 H86  LIG A   1       5.883  -1.502  -1.159  1.00 20.00    +0.159 HD
ATOM     87 H87  LIG A   1       5.902  -0.049  -0.347  1.00 20.00    +0.159 HD
ENDROOT
TORSDOF 0
