ROOT
ATOM      1 N1   LIG A   1      -7.450  -1.505  -3.162  1.00 20.00    -0.289 NA
ATOM      2 C2   LIG A   1      -8.506  -1.042  -2.582  1.00 20.00    +0.092 C 
ATOM      3 N3   LIG A   1      -8.795   0.290  -2.588  1.00 20.00    -0.388 NA
ATOM      4 C4   LIG A   1      -9.436  -2.014  -1.887  1.00 20.00    +0.022 C 
ATOM      5 C5   LIG A   1      -9.360  -1.910  -0.366  1.00 20.00    +0.022 C 
ATOM      6 N6   LIG A   1      -8.030  -2.263   0.144  1.00 20.00    -0.384 NA
ATOM      7 C7   LIG A   1      -7.203  -1.214   0.572  1.00 20.00    +0.038 A 
ATOM      8 C8   LIG A   1      -7.651  -0.229   1.463  1.00 20.00    -0.038 A 
ATOM      9 C9   LIG A   1      -6.801   0.794   1.895  1.00 20.00    -0.045 A 
ATOM     10 C10  LIG A   1      -5.481   0.824   1.447  1.00 20.00    +0.065 A 
ATOM     11 C11  LIG A   1      -4.561   1.888   1.874  1.00 20.00    +0.193 C 
ATOM     12 O12  LIG A   1      -4.911   2.800   2.611  1.00 20.00    -0.289 OA
ATOM     13 C13  LIG A   1      -3.183   1.809   1.363  1.00 20.00    +0.030 C 
ATOM     14 C14  LIG A   1      -2.843   0.800   0.547  1.00 20.00    +0.138 C 
ATOM     15 C15  LIG A   1      -1.479   0.675  -0.005  1.00 20.00    +0.017 A 
ATOM     16 C16  LIG A   1      -1.291   0.285  -1.334  1.00 20.00    -0.049 A 
ATOM     17 C17  LIG A   1      -0.002   0.150  -1.865  1.00 20.00    -0.038 A 
ATOM     18 C18  LIG A   1       1.141   0.416  -1.099  1.00 20.00    +0.034 A 
ATOM     19 N19  LIG A   1       2.390   0.190  -1.674  1.00 20.00    -0.385 NA
ATOM     20 C20  LIG A   1       3.626   0.663  -1.055  1.00 20.00    +0.016 C 
ATOM     21 C21  LIG A   1       4.226  -0.430  -0.170  1.00 20.00    -0.023 C 
ATOM     22 C22  LIG A   1       5.472   0.038   0.585  1.00 20.00    -0.003 C 
ATOM     23 N23  LIG A   1       6.554   0.375  -0.339  1.00 20.00    -0.317 NA
ATOM     24 C24  LIG A   1       7.745   0.891   0.339  1.00 20.00    -0.005 C 
ATOM     25 C25  LIG A   1       8.585  -0.211   0.994  1.00 20.00    -0.039 C 
ATOM     26 C26  LIG A   1       9.829   0.324   1.713  1.00 20.00    -0.040 C 
ATOM     27 C27  LIG A   1      10.865   0.925   0.763  1.00 20.00    -0.008 C 
ATOM     28 N28  LIG A   1      12.063   1.332   1.490  1.00 20.00    -0.330 NA
ATOM     29 C29  LIG A   1       0.945   0.760   0.241  1.00 20.00    -0.038 A 
ATOM     30 C30  LIG A   1      -0.342   0.899   0.780  1.00 20.00    -0.049 A 
ATOM     31 O31  LIG A   1      -3.718  -0.189   0.124  1.00 20.00    -0.456 OA
ATOM     32 C32  LIG A   1      -5.009  -0.161   0.589  1.00 20.00    +0.140 A 
ATOM     33 C33  LIG A   1      -5.863  -1.180   0.161  1.00 20.00    +0.005 A 
ATOM     34 N34  LIG A   1       1.896   0.456   0.744  1.00 20.00    -0.330 NA
ATOM     35 C35  LIG A   1       1.041   0.612  -0.432  1.00 20.00    -0.007 C 
ATOM     36 C36  LIG A   1       0.087  -0.571  -0.597  1.00 20.00    -0.029 C 
ATOM     37 C37  LIG A   1      -1.042  -0.608   0.435  1.00 20.00    -0.007 C 
ATOM     38 N38  LIG A   1      -2.033   0.438   0.189  1.00 20.00    -0.330 NA
ATOM     39 H39  LIG A   1      -6.943  -0.740  -3.612  1.00 20.00    +0.189 HD
ATOM     40 H40  LIG A   1      -8.008   0.913  -2.730  1.00 20.00    +0.157 HD
ATOM     41 H41  LIG A   1      -9.418   0.626  -1.862  1.00 20.00    +0.157 HD
ATOM     42 H42  LIG A   1      -9.193  -3.033  -2.210  1.00 20.00    +0.037 H 
ATOM     43 H43  LIG A   1     -10.460  -1.801  -2.218  1.00 20.00    +0.037 H 
ATOM     44 H44  LIG A   1      -9.691  -0.917  -0.045  1.00 20.00    +0.049 H 
ATOM     45 H45  LIG A   1     -10.074  -2.624   0.062  1.00 20.00    +0.049 H 
ATOM     46 H46  LIG A   1      -7.538  -2.870  -0.514  1.00 20.00    +0.160 HD
ATOM     47 H47  LIG A   1      -8.664  -0.264   1.857  1.00 20.00    +0.064 H 
ATOM     48 H48  LIG A   1      -7.166   1.550   2.586  1.00 20.00    +0.063 H 
ATOM     49 H49  LIG A   1      -2.507   2.595   1.672  1.00 20.00    +0.070 H 
ATOM     50 H50  LIG A   1      -2.144   0.075  -1.975  1.00 20.00    +0.063 H 
ATOM     51 H51  LIG A   1       0.102  -0.176  -2.898  1.00 20.00    +0.064 H 
ATOM     52 H52  LIG A   1       2.380   0.320  -2.683  1.00 20.00    +0.160 HD
ATOM     53 H53  LIG A   1       4.330   0.900  -1.861  1.00 20.00    +0.049 H 
ATOM     54 H54  LIG A   1       3.472   1.598  -0.502  1.00 20.00    +0.049 H 
ATOM     55 H55  LIG A   1       4.465  -1.311  -0.781  1.00 20.00    +0.030 H 
ATOM     56 H56  LIG A   1       3.486  -0.767   0.566  1.00 20.00    +0.030 H 
ATOM     57 H57  LIG A   1       5.782  -0.765   1.262  1.00 20.00    +0.043 H 
ATOM     58 H58  LIG A   1       5.212   0.909   1.198  1.00 20.00    +0.043 H 
ATOM     59 H59  LIG A   1       6.801  -0.445  -0.895  1.00 20.00    +0.122 HD
ATOM     60 H60  LIG A   1       8.345   1.397  -0.424  1.00 20.00    +0.043 H 
ATOM     61 H61  LIG A   1       7.470   1.658   1.073  1.00 20.00    +0.043 H 
ATOM     62 H62  LIG A   1       7.981  -0.747   1.735  1.00 20.00    +0.028 H 
ATOM     63 H63  LIG A   1       8.888  -0.949   0.241  1.00 20.00    +0.028 H 
ATOM     64 H64  LIG A   1      10.285  -0.510   2.262  1.00 20.00    +0.028 H 
ATOM     65 H65  LIG A   1       9.528   1.066   2.463  1.00 20.00    +0.028 H 
ATOM     66 H66  LIG A   1      10.461   1.803   0.250  1.00 20.00    +0.043 H 
ATOM     67 H67  LIG A   1      11.146   0.195  -0.003  1.00 20.00    +0.043 H 
ATOM     68 H68  LIG A   1      11.816   2.011   2.209  1.00 20.00    +0.118 HD
ATOM     69 H69  LIG A   1      12.455   0.530   1.984  1.00 20.00    +0.118 HD
ATOM     70 H70  LIG A   1       1.789   0.923   0.904  1.00 20.00    +0.064 H 
ATOM     71 H71  LIG A   1      -0.435   1.162   1.832  1.00 20.00    +0.063 H 
ATOM     72 H72  LIG A   1      -5.479  -1.943  -0.512  1.00 20.00    +0.068 H 
ATOM     73 H73  LIG A   1       2.510  -0.347   0.616  1.00 20.00    +0.118 HD
ATOM     74 H74  LIG A   1       2.504   1.270   0.823  1.00 20.00    +0.118 HD
ATOM     75 H75  LIG A   1       0.486   1.553  -0.357  1.00 20.00    +0.043 H 
ATOM     76 H76  LIG A   1       1.682   0.684  -1.318  1.00 20.00    +0.043 H 
ATOM     77 H77  LIG A   1      -0.343  -0.543  -1.607  1.00 20.00    +0.029 H 
ATOM     78 H78  LIG A   1       0.654  -1.509  -0.537  1.00 20.00    +0.029 H 
ATOM     79 H79  LIG A   1      -1.545  -1.580   0.383  1.00 20.00    +0.043 H 
ATOM     80 H80  LIG A   1      -0.644  -0.504   1.450  1.00 20.00    +0.043 H 
ATOM     81 H81  LIG A   1      -2.754   0.387   0.907  1.00 20.00    +0.118 HD
ATOM     82 H82  LIG A   1      -2.500   0.264  -0.699  1.00 20.00    +0.118 HD
ENDROOT
TORSDOF 0
