MODEL 1
REMARK VINA RESULT:   -12.459      0.000      0.000
REMARK INTER + INTRA:         -12.459
REMARK INTER:                 -12.459
REMARK INTRA:                   0.000
REMARK UNBOUND:                 0.000
ROOT
ATOM      1 C1   LIG A   1      23.559  17.962   6.058  1.00 20.00    -0.060 C 
ATOM      2 C2   LIG A   1      22.498  18.779   6.817  1.00 20.00    -0.016 C 
ATOM      3 C3   LIG A   1      21.924  17.837   7.931  1.00 20.00    -0.023 C 
ATOM      4 C4   LIG A   1      21.075  18.544   8.952  1.00 20.00    -0.048 A 
ATOM      5 C5   LIG A   1      21.593  18.795  10.226  1.00 20.00    -0.058 A 
ATOM      6 C6   LIG A   1      21.086  19.851  10.971  1.00 20.00    -0.051 A 
ATOM      7 C7   LIG A   1      20.115  20.681  10.405  1.00 20.00    +0.017 A 
ATOM      8 C8   LIG A   1      19.395  20.227   9.293  1.00 20.00    -0.051 A 
ATOM      9 C9   LIG A   1      19.873  19.141   8.566  1.00 20.00    -0.058 A 
ATOM     10 C10  LIG A   1      20.031  22.101  10.804  1.00 20.00    +0.140 C 
ATOM     11 C11  LIG A   1      20.195  23.100   9.908  1.00 20.00    +0.047 C 
ATOM     12 C12  LIG A   1      20.808  23.023   8.541  1.00 20.00    +0.256 C 
ATOM     13 O13  LIG A   1      20.543  23.910   7.733  1.00 20.00    -0.269 OA
ATOM     14 N14  LIG A   1      21.926  22.200   8.456  1.00 20.00    -0.278 NA
ATOM     15 C15  LIG A   1      23.210  22.824   8.813  1.00 20.00    +0.029 C 
ATOM     16 C16  LIG A   1      23.255  23.651  10.122  1.00 20.00    -0.034 C 
ATOM     17 C17  LIG A   1      23.210  22.769  11.374  1.00 20.00    -0.034 C 
ATOM     18 C18  LIG A   1      22.835  23.480  12.690  1.00 20.00    +0.085 C 
ATOM     19 C19  LIG A   1      23.057  22.499  13.834  1.00 20.00    +0.311 C 
ATOM     20 O20  LIG A   1      22.418  21.490  14.084  1.00 20.00    -0.252 OA
ATOM     21 O21  LIG A   1      24.124  22.827  14.597  1.00 20.00    -0.481 OA
ATOM     22 C22  LIG A   1      21.476  24.164  12.833  1.00 20.00    +0.009 A 
ATOM     23 C23  LIG A   1      21.487  25.505  13.263  1.00 20.00    -0.052 A 
ATOM     24 C24  LIG A   1      20.304  26.214  13.522  1.00 20.00    -0.038 A 
ATOM     25 C25  LIG A   1      19.054  25.607  13.410  1.00 20.00    +0.038 A 
ATOM     26 N26  LIG A   1      17.844  26.270  13.594  1.00 20.00    -0.385 NA
ATOM     27 C27  LIG A   1      17.739  27.535  14.313  1.00 20.00    +0.016 C 
ATOM     28 C28  LIG A   1      17.868  27.334  15.823  1.00 20.00    -0.023 C 
ATOM     29 C29  LIG A   1      17.735  28.671  16.556  1.00 20.00    -0.003 C 
ATOM     30 N30  LIG A   1      17.797  28.455  18.001  1.00 20.00    -0.317 NA
ATOM     31 C31  LIG A   1      17.765  29.709  18.756  1.00 20.00    -0.005 C 
ATOM     32 C32  LIG A   1      16.516  29.792  19.641  1.00 20.00    -0.039 C 
ATOM     33 C33  LIG A   1      15.183  29.882  18.885  1.00 20.00    -0.040 C 
ATOM     34 C34  LIG A   1      15.021  31.107  17.982  1.00 20.00    -0.008 C 
ATOM     35 N35  LIG A   1      15.061  32.368  18.713  1.00 20.00    -0.330 NA
ATOM     36 C36  LIG A   1      19.032  24.287  12.953  1.00 20.00    +0.004 A 
ATOM     37 C37  LIG A   1      20.211  23.577  12.658  1.00 20.00    +0.133 A 
ATOM     38 O38  LIG A   1      20.010  22.297  12.187  1.00 20.00    -0.456 OA
ATOM     39 C39  LIG A   1      21.864  21.241   7.435  1.00 20.00    +0.246 C 
ATOM     40 O40  LIG A   1      20.922  21.193   6.636  1.00 20.00    -0.273 OA
ATOM     41 C41  LIG A   1      23.029  20.180   7.334  1.00 20.00    +0.088 C 
ATOM     42 N42  LIG A   1      24.037  20.737   6.401  1.00 20.00    -0.320 NA
ATOM     43 C43  LIG A   1      19.691  26.387  14.805  1.00 20.00    -0.048 C 
ATOM     44 C44  LIG A   1      19.116  25.223  14.015  1.00 20.00    +0.015 C 
ATOM     45 N45  LIG A   1      20.112  24.716  13.087  1.00 20.00    -0.357 NA
ATOM     46 C46  LIG A   1      19.871  23.726  12.176  1.00 20.00    +0.195 C 
ATOM     47 N47  LIG A   1      18.722  23.184  11.951  1.00 20.00    -0.269 NA
ATOM     48 N48  LIG A   1      20.991  23.364  11.487  1.00 20.00    -0.298 NA
ATOM     49 C49  LIG A   1      21.224  22.376  10.589  1.00 20.00    +0.192 C 
ATOM     50 N50  LIG A   1      20.399  21.463  10.214  1.00 20.00    -0.269 NA
ATOM     51 N51  LIG A   1      22.470  22.386  10.060  1.00 20.00    -0.370 NA
ATOM     52 H52  LIG A   1      23.863  18.461   5.132  1.00 20.00    +0.023 H 
ATOM     53 H53  LIG A   1      23.163  16.980   5.771  1.00 20.00    +0.023 H 
ATOM     54 H54  LIG A   1      24.450  17.798   6.674  1.00 20.00    +0.023 H 
ATOM     55 H55  LIG A   1      21.685  18.962   6.102  1.00 20.00    +0.032 H 
ATOM     56 H56  LIG A   1      22.753  17.330   8.441  1.00 20.00    +0.032 H 
ATOM     57 H57  LIG A   1      21.329  17.040   7.465  1.00 20.00    +0.032 H 
ATOM     58 H58  LIG A   1      22.473  18.269  10.586  1.00 20.00    +0.063 H 
ATOM     59 H59  LIG A   1      21.567  20.112  11.911  1.00 20.00    +0.063 H 
ATOM     60 H60  LIG A   1      18.581  20.817   8.874  1.00 20.00    +0.063 H 
ATOM     61 H61  LIG A   1      19.422  18.917   7.599  1.00 20.00    +0.063 H 
ATOM     62 H62  LIG A   1      20.059  24.139  10.193  1.00 20.00    +0.072 H 
ATOM     63 H63  LIG A   1      23.470  23.491   7.982  1.00 20.00    +0.050 H 
ATOM     64 H64  LIG A   1      23.992  22.062   8.865  1.00 20.00    +0.050 H 
ATOM     65 H65  LIG A   1      22.470  24.412  10.132  1.00 20.00    +0.029 H 
ATOM     66 H66  LIG A   1      24.201  24.208  10.138  1.00 20.00    +0.029 H 
ATOM     67 H67  LIG A   1      22.559  21.921  11.212  1.00 20.00    +0.028 H 
ATOM     68 H68  LIG A   1      24.206  22.320  11.493  1.00 20.00    +0.028 H 
ATOM     69 H69  LIG A   1      23.602  24.261  12.809  1.00 20.00    +0.047 H 
ATOM     70 H70  LIG A   1      24.136  22.133  15.291  1.00 20.00    +0.296 HD
ATOM     71 H71  LIG A   1      22.431  26.028  13.414  1.00 20.00    +0.063 H 
ATOM     72 H72  LIG A   1      20.396  27.252  13.827  1.00 20.00    +0.064 H 
ATOM     73 H73  LIG A   1      17.071  25.636  13.786  1.00 20.00    +0.160 HD
ATOM     74 H74  LIG A   1      16.749  27.954  14.094  1.00 20.00    +0.049 H 
ATOM     75 H75  LIG A   1      18.460  28.268  13.940  1.00 20.00    +0.049 H 
ATOM     76 H76  LIG A   1      18.834  26.875  16.064  1.00 20.00    +0.030 H 
ATOM     77 H77  LIG A   1      17.095  26.637  16.168  1.00 20.00    +0.030 H 
ATOM     78 H78  LIG A   1      18.540  29.340  16.234  1.00 20.00    +0.043 H 
ATOM     79 H79  LIG A   1      16.779  29.133  16.291  1.00 20.00    +0.043 H 
ATOM     80 H80  LIG A   1      18.654  27.947  18.228  1.00 20.00    +0.122 HD
ATOM     81 H81  LIG A   1      17.847  30.593  18.114  1.00 20.00    +0.043 H 
ATOM     82 H82  LIG A   1      18.644  29.734  19.411  1.00 20.00    +0.043 H 
ATOM     83 H83  LIG A   1      16.618  30.652  20.313  1.00 20.00    +0.028 H 
ATOM     84 H84  LIG A   1      16.482  28.909  20.294  1.00 20.00    +0.028 H 
ATOM     85 H85  LIG A   1      14.369  29.873  19.623  1.00 20.00    +0.028 H 
ATOM     86 H86  LIG A   1      15.047  28.978  18.279  1.00 20.00    +0.028 H 
ATOM     87 H87  LIG A   1      14.057  31.039  17.467  1.00 20.00    +0.043 H 
ATOM     88 H88  LIG A   1      15.788  31.125  17.202  1.00 20.00    +0.043 H 
ATOM     89 H89  LIG A   1      15.955  32.468  19.192  1.00 20.00    +0.118 HD
ATOM     90 H90  LIG A   1      14.351  32.358  19.445  1.00 20.00    +0.118 HD
ATOM     91 H91  LIG A   1      18.077  23.788  12.799  1.00 20.00    +0.068 H 
ATOM     92 H92  LIG A   1      23.494  20.046   8.315  1.00 20.00    +0.057 H 
ATOM     93 H93  LIG A   1      24.289  21.691   6.643  1.00 20.00    +0.119 HD
ATOM     94 H94  LIG A   1      24.889  20.181   6.435  1.00 20.00    +0.119 HD
ATOM     95 H95  LIG A   1      20.572  26.079  15.377  1.00 20.00    +0.025 H 
ATOM     96 H96  LIG A   1      19.993  27.202  14.138  1.00 20.00    +0.025 H 
ATOM     97 H97  LIG A   1      18.947  26.776  15.507  1.00 20.00    +0.025 H 
ATOM     98 H98  LIG A   1      18.811  24.428  14.703  1.00 20.00    +0.049 H 
ATOM     99 H99  LIG A   1      18.231  25.568  13.469  1.00 20.00    +0.049 H 
ATOM    100 H100 LIG A   1      21.034  24.664  13.507  1.00 20.00    +0.163 HD
ATOM    101 H101 LIG A   1      18.011  23.601  12.550  1.00 20.00    +0.191 HD
ATOM    102 H102 LIG A   1      21.810  23.916  11.684  1.00 20.00    +0.173 HD
ATOM    103 H103 LIG A   1      19.520  21.665  10.728  1.00 20.00    +0.191 HD
ATOM    104 H104 LIG A   1      22.517  21.623   9.385  1.00 20.00    +0.159 HD
ATOM    105 H105 LIG A   1      22.674  23.248   9.570  1.00 20.00    +0.159 HD
ENDROOT
TORSDOF 0
                                                                                                            
ENDMDL
MODEL 2
REMARK VINA RESULT:   -12.230      5.425     11.332
REMARK INTER + INTRA:         -12.230
REMARK INTER:                 -12.230
REMARK INTRA:                   0.000
REMARK UNBOUND:                 0.000
ROOT
ATOM      1 C1   LIG A   1      25.442  22.548  13.799  1.00 20.00    -0.060 C 
ATOM      2 C2   LIG A   1      24.205  21.738  13.373  1.00 20.00    -0.016 C 
ATOM      3 C3   LIG A   1      23.059  22.777  13.117  1.00 20.00    -0.023 C 
ATOM      4 C4   LIG A   1      21.853  22.200  12.427  1.00 20.00    -0.048 A 
ATOM      5 C5   LIG A   1      21.634  22.478  11.074  1.00 20.00    -0.058 A 
ATOM      6 C6   LIG A   1      20.890  21.589  10.309  1.00 20.00    -0.051 A 
ATOM      7 C7   LIG A   1      20.431  20.405  10.892  1.00 20.00    +0.017 A 
ATOM      8 C8   LIG A   1      20.379  20.309  12.288  1.00 20.00    -0.051 A 
ATOM      9 C9   LIG A   1      21.087  21.222  13.063  1.00 20.00    -0.058 A 
ATOM     10 C10  LIG A   1      20.255  19.194  10.065  1.00 20.00    +0.140 C 
ATOM     11 C11  LIG A   1      20.942  18.057  10.317  1.00 20.00    +0.047 C 
ATOM     12 C12  LIG A   1      22.179  17.892  11.150  1.00 20.00    +0.256 C 
ATOM     13 O13  LIG A   1      22.449  16.770  11.575  1.00 20.00    -0.269 OA
ATOM     14 N14  LIG A   1      23.106  18.919  11.014  1.00 20.00    -0.278 NA
ATOM     15 C15  LIG A   1      24.049  18.788   9.891  1.00 20.00    +0.029 C 
ATOM     16 C16  LIG A   1      23.454  18.420   8.509  1.00 20.00    -0.034 C 
ATOM     17 C17  LIG A   1      22.687  19.584   7.873  1.00 20.00    -0.034 C 
ATOM     18 C18  LIG A   1      21.725  19.215   6.725  1.00 20.00    +0.085 C 
ATOM     19 C19  LIG A   1      21.234  20.509   6.089  1.00 20.00    +0.311 C 
ATOM     20 O20  LIG A   1      20.487  21.341   6.577  1.00 20.00    -0.252 OA
ATOM     21 O21  LIG A   1      21.755  20.711   4.859  1.00 20.00    -0.481 OA
ATOM     22 C22  LIG A   1      20.553  18.270   6.980  1.00 20.00    +0.009 A 
ATOM     23 C23  LIG A   1      20.434  17.164   6.115  1.00 20.00    -0.052 A 
ATOM     24 C24  LIG A   1      19.350  16.275   6.186  1.00 20.00    -0.038 A 
ATOM     25 C25  LIG A   1      18.308  16.471   7.092  1.00 20.00    +0.038 A 
ATOM     26 N26  LIG A   1      17.238  15.597   7.253  1.00 20.00    -0.385 NA
ATOM     27 C27  LIG A   1      16.862  14.615   6.242  1.00 20.00    +0.016 C 
ATOM     28 C28  LIG A   1      16.156  15.274   5.057  1.00 20.00    -0.023 C 
ATOM     29 C29  LIG A   1      15.754  14.223   4.019  1.00 20.00    -0.003 C 
ATOM     30 N30  LIG A   1      15.025  14.858   2.922  1.00 20.00    -0.317 NA
ATOM     31 C31  LIG A   1      14.691  13.917   1.852  1.00 20.00    -0.005 C 
ATOM     32 C32  LIG A   1      13.173  13.769   1.698  1.00 20.00    -0.039 C 
ATOM     33 C33  LIG A   1      12.455  13.115   2.885  1.00 20.00    -0.040 C 
ATOM     34 C34  LIG A   1      12.887  11.682   3.207  1.00 20.00    -0.008 C 
ATOM     35 N35  LIG A   1      12.628  10.746   2.120  1.00 20.00    -0.330 NA
ATOM     36 C36  LIG A   1      18.434  17.546   7.976  1.00 20.00    +0.004 A 
ATOM     37 C37  LIG A   1      19.533  18.424   7.936  1.00 20.00    +0.133 A 
ATOM     38 O38  LIG A   1      19.518  19.410   8.898  1.00 20.00    -0.456 OA
ATOM     39 C39  LIG A   1      23.524  19.487  12.226  1.00 20.00    +0.246 C 
ATOM     40 O40  LIG A   1      23.148  19.050  13.320  1.00 20.00    -0.273 OA
ATOM     41 C41  LIG A   1      24.483  20.740  12.173  1.00 20.00    +0.088 C 
ATOM     42 N42  LIG A   1      25.870  20.222  12.232  1.00 20.00    -0.320 NA
ATOM     43 C43  LIG A   1      18.165  16.328   5.384  1.00 20.00    -0.048 C 
ATOM     44 C44  LIG A   1      18.012  17.017   6.729  1.00 20.00    +0.015 C 
ATOM     45 N45  LIG A   1      19.308  17.475   7.200  1.00 20.00    -0.357 NA
ATOM     46 C46  LIG A   1      19.513  18.057   8.420  1.00 20.00    +0.195 C 
ATOM     47 N47  LIG A   1      18.621  18.187   9.343  1.00 20.00    -0.269 NA
ATOM     48 N48  LIG A   1      20.797  18.484   8.587  1.00 20.00    -0.298 NA
ATOM     49 C49  LIG A   1      21.397  19.193   9.574  1.00 20.00    +0.192 C 
ATOM     50 N50  LIG A   1      20.831  19.706  10.610  1.00 20.00    -0.269 NA
ATOM     51 N51  LIG A   1      22.730  19.359   9.412  1.00 20.00    -0.370 NA
ATOM     52 H52  LIG A   1      26.227  21.899  14.202  1.00 20.00    +0.023 H 
ATOM     53 H53  LIG A   1      25.187  23.262  14.590  1.00 20.00    +0.023 H 
ATOM     54 H54  LIG A   1      25.856  23.113  12.957  1.00 20.00    +0.023 H 
ATOM     55 H55  LIG A   1      23.911  21.147  14.251  1.00 20.00    +0.032 H 
ATOM     56 H56  LIG A   1      23.451  23.611  12.520  1.00 20.00    +0.032 H 
ATOM     57 H57  LIG A   1      22.744  23.218  14.073  1.00 20.00    +0.032 H 
ATOM     58 H58  LIG A   1      22.148  23.298  10.580  1.00 20.00    +0.063 H 
ATOM     59 H59  LIG A   1      20.817  21.751   9.236  1.00 20.00    +0.063 H 
ATOM     60 H60  LIG A   1      19.957  19.430  12.773  1.00 20.00    +0.063 H 
ATOM     61 H61  LIG A   1      21.202  21.027  14.130  1.00 20.00    +0.063 H 
ATOM     62 H62  LIG A   1      20.754  17.149   9.752  1.00 20.00    +0.072 H 
ATOM     63 H63  LIG A   1      24.758  18.000  10.175  1.00 20.00    +0.050 H 
ATOM     64 H64  LIG A   1      24.625  19.709   9.779  1.00 20.00    +0.050 H 
ATOM     65 H65  LIG A   1      22.843  17.516   8.573  1.00 20.00    +0.029 H 
ATOM     66 H66  LIG A   1      24.287  18.163   7.840  1.00 20.00    +0.029 H 
ATOM     67 H67  LIG A   1      22.160  20.145   8.632  1.00 20.00    +0.028 H 
ATOM     68 H68  LIG A   1      23.432  20.295   7.488  1.00 20.00    +0.028 H 
ATOM     69 H69  LIG A   1      22.368  18.734   5.972  1.00 20.00    +0.047 H 
ATOM     70 H70  LIG A   1      21.345  21.554   4.568  1.00 20.00    +0.296 HD
ATOM     71 H71  LIG A   1      21.190  16.977   5.353  1.00 20.00    +0.063 H 
ATOM     72 H72  LIG A   1      19.343  15.434   5.500  1.00 20.00    +0.064 H 
ATOM     73 H73  LIG A   1      16.437  16.031   7.705  1.00 20.00    +0.160 HD
ATOM     74 H74  LIG A   1      16.173  13.904   6.715  1.00 20.00    +0.049 H 
ATOM     75 H75  LIG A   1      17.724  14.022   5.920  1.00 20.00    +0.049 H 
ATOM     76 H76  LIG A   1      16.811  16.021   4.592  1.00 20.00    +0.030 H 
ATOM     77 H77  LIG A   1      15.268  15.811   5.411  1.00 20.00    +0.030 H 
ATOM     78 H78  LIG A   1      16.655  13.726   3.642  1.00 20.00    +0.043 H 
ATOM     79 H79  LIG A   1      15.122  13.468   4.497  1.00 20.00    +0.043 H 
ATOM     80 H80  LIG A   1      15.591  15.618   2.539  1.00 20.00    +0.122 HD
ATOM     81 H81  LIG A   1      15.166  12.939   1.984  1.00 20.00    +0.043 H 
ATOM     82 H82  LIG A   1      15.088  14.316   0.912  1.00 20.00    +0.043 H 
ATOM     83 H83  LIG A   1      12.967  13.201   0.783  1.00 20.00    +0.028 H 
ATOM     84 H84  LIG A   1      12.732  14.762   1.533  1.00 20.00    +0.028 H 
ATOM     85 H85  LIG A   1      11.375  13.123   2.680  1.00 20.00    +0.028 H 
ATOM     86 H86  LIG A   1      12.594  13.733   3.780  1.00 20.00    +0.028 H 
ATOM     87 H87  LIG A   1      12.341  11.341   4.092  1.00 20.00    +0.043 H 
ATOM     88 H88  LIG A   1      13.950  11.641   3.464  1.00 20.00    +0.043 H 
ATOM     89 H89  LIG A   1      13.136  11.030   1.284  1.00 20.00    +0.118 HD
ATOM     90 H90  LIG A   1      11.639  10.781   1.872  1.00 20.00    +0.118 HD
ATOM     91 H91  LIG A   1      17.672  17.708   8.736  1.00 20.00    +0.068 H 
ATOM     92 H92  LIG A   1      24.345  21.272  11.228  1.00 20.00    +0.057 H 
ATOM     93 H93  LIG A   1      26.027  19.482  11.554  1.00 20.00    +0.119 HD
ATOM     94 H94  LIG A   1      26.531  20.967  12.023  1.00 20.00    +0.119 HD
ATOM     95 H95  LIG A   1      18.584  17.010   4.636  1.00 20.00    +0.025 H 
ATOM     96 H96  LIG A   1      18.834  15.464   5.460  1.00 20.00    +0.025 H 
ATOM     97 H97  LIG A   1      17.194  15.979   5.021  1.00 20.00    +0.025 H 
ATOM     98 H98  LIG A   1      17.330  17.868   6.630  1.00 20.00    +0.049 H 
ATOM     99 H99  LIG A   1      17.579  16.308   7.443  1.00 20.00    +0.049 H 
ATOM    100 H100 LIG A   1      19.860  17.889   6.456  1.00 20.00    +0.163 HD
ATOM    101 H101 LIG A   1      17.734  17.790   9.037  1.00 20.00    +0.191 HD
ATOM    102 H102 LIG A   1      21.426  18.250   7.836  1.00 20.00    +0.173 HD
ATOM    103 H103 LIG A   1      19.830  19.438  10.532  1.00 20.00    +0.191 HD
ATOM    104 H104 LIG A   1      23.070  19.875  10.222  1.00 20.00    +0.159 HD
ATOM    105 H105 LIG A   1      23.226  18.476   9.374  1.00 20.00    +0.159 HD
ENDROOT
TORSDOF 0
                                                                                                            
ENDMDL
MODEL 3
REMARK VINA RESULT:   -12.193      3.184     10.452
REMARK INTER + INTRA:         -12.193
REMARK INTER:                 -12.193
REMARK INTRA:                   0.000
REMARK UNBOUND:                 0.000
ROOT
ATOM      1 C1   LIG A   1      22.415  28.136  15.998  1.00 20.00    -0.060 C 
ATOM      2 C2   LIG A   1      21.718  26.861  15.490  1.00 20.00    -0.016 C 
ATOM      3 C3   LIG A   1      20.379  27.324  14.818  1.00 20.00    -0.023 C 
ATOM      4 C4   LIG A   1      19.693  26.251  14.018  1.00 20.00    -0.048 A 
ATOM      5 C5   LIG A   1      19.746  26.291  12.622  1.00 20.00    -0.058 A 
ATOM      6 C6   LIG A   1      19.606  25.112  11.901  1.00 20.00    -0.051 A 
ATOM      7 C7   LIG A   1      19.480  23.903  12.589  1.00 20.00    +0.017 A 
ATOM      8 C8   LIG A   1      19.108  23.922  13.939  1.00 20.00    -0.051 A 
ATOM      9 C9   LIG A   1      19.203  25.110  14.657  1.00 20.00    -0.058 A 
ATOM     10 C10  LIG A   1      19.983  22.652  11.985  1.00 20.00    +0.140 C 
ATOM     11 C11  LIG A   1      20.950  21.916  12.577  1.00 20.00    +0.047 C 
ATOM     12 C12  LIG A   1      21.899  22.339  13.659  1.00 20.00    +0.256 C 
ATOM     13 O13  LIG A   1      22.442  21.464  14.331  1.00 20.00    -0.269 OA
ATOM     14 N14  LIG A   1      22.385  23.634  13.525  1.00 20.00    -0.278 NA
ATOM     15 C15  LIG A   1      23.566  23.790  12.660  1.00 20.00    +0.029 C 
ATOM     16 C16  LIG A   1      23.528  23.089  11.280  1.00 20.00    -0.034 C 
ATOM     17 C17  LIG A   1      22.580  23.783  10.296  1.00 20.00    -0.034 C 
ATOM     18 C18  LIG A   1      22.154  22.954   9.067  1.00 20.00    +0.085 C 
ATOM     19 C19  LIG A   1      21.404  23.877   8.115  1.00 20.00    +0.311 C 
ATOM     20 O20  LIG A   1      20.305  24.380   8.278  1.00 20.00    -0.252 OA
ATOM     21 O21  LIG A   1      22.114  24.157   7.000  1.00 20.00    -0.481 OA
ATOM     22 C22  LIG A   1      21.389  21.646   9.251  1.00 20.00    +0.009 A 
ATOM     23 C23  LIG A   1      21.913  20.511   8.601  1.00 20.00    -0.052 A 
ATOM     24 C24  LIG A   1      21.254  19.272   8.615  1.00 20.00    -0.038 A 
ATOM     25 C25  LIG A   1      20.016  19.116   9.239  1.00 20.00    +0.038 A 
ATOM     26 N26  LIG A   1      19.340  17.904   9.341  1.00 20.00    -0.385 NA
ATOM     27 C27  LIG A   1      19.627  16.765   8.475  1.00 20.00    +0.016 C 
ATOM     28 C28  LIG A   1      19.061  16.972   7.070  1.00 20.00    -0.023 C 
ATOM     29 C29  LIG A   1      19.358  15.758   6.187  1.00 20.00    -0.003 C 
ATOM     30 N30  LIG A   1      18.758  15.943   4.867  1.00 20.00    -0.317 NA
ATOM     31 C31  LIG A   1      19.082  14.852   3.946  1.00 20.00    -0.005 C 
ATOM     32 C32  LIG A   1      17.821  14.094   3.518  1.00 20.00    -0.039 C 
ATOM     33 C33  LIG A   1      17.112  13.318   4.636  1.00 20.00    -0.040 C 
ATOM     34 C34  LIG A   1      17.942  12.217   5.300  1.00 20.00    -0.008 C 
ATOM     35 N35  LIG A   1      18.336  11.159   4.377  1.00 20.00    -0.330 NA
ATOM     36 C36  LIG A   1      19.504  20.227   9.915  1.00 20.00    +0.004 A 
ATOM     37 C37  LIG A   1      20.173  21.464   9.935  1.00 20.00    +0.133 A 
ATOM     38 O38  LIG A   1      19.548  22.446  10.673  1.00 20.00    -0.456 OA
ATOM     39 C39  LIG A   1      22.235  24.431  14.669  1.00 20.00    +0.246 C 
ATOM     40 O40  LIG A   1      21.776  23.983  15.726  1.00 20.00    -0.273 OA
ATOM     41 C41  LIG A   1      22.645  25.954  14.579  1.00 20.00    +0.088 C 
ATOM     42 N42  LIG A   1      24.058  26.044  15.012  1.00 20.00    -0.320 NA
ATOM     43 C43  LIG A   1      20.384  18.771   7.595  1.00 20.00    -0.048 C 
ATOM     44 C44  LIG A   1      19.645  19.460   8.729  1.00 20.00    +0.015 C 
ATOM     45 N45  LIG A   1      20.511  20.442   9.359  1.00 20.00    -0.357 NA
ATOM     46 C46  LIG A   1      20.165  21.166  10.464  1.00 20.00    +0.195 C 
ATOM     47 N47  LIG A   1      19.081  21.012  11.147  1.00 20.00    -0.269 NA
ATOM     48 N48  LIG A   1      21.111  22.087  10.805  1.00 20.00    -0.298 NA
ATOM     49 C49  LIG A   1      21.130  23.064  11.744  1.00 20.00    +0.192 C 
ATOM     50 N50  LIG A   1      20.168  23.400  12.530  1.00 20.00    -0.269 NA
ATOM     51 N51  LIG A   1      22.302  23.737  11.826  1.00 20.00    -0.370 NA
ATOM     52 H52  LIG A   1      23.250  27.897  16.666  1.00 20.00    +0.023 H 
ATOM     53 H53  LIG A   1      21.719  28.757  16.574  1.00 20.00    +0.023 H 
ATOM     54 H54  LIG A   1      22.795  28.739  15.168  1.00 20.00    +0.023 H 
ATOM     55 H55  LIG A   1      21.445  26.286  16.384  1.00 20.00    +0.032 H 
ATOM     56 H56  LIG A   1      20.577  28.186  14.168  1.00 20.00    +0.032 H 
ATOM     57 H57  LIG A   1      19.688  27.687  15.591  1.00 20.00    +0.032 H 
ATOM     58 H58  LIG A   1      20.031  27.199  12.098  1.00 20.00    +0.063 H 
ATOM     59 H59  LIG A   1      19.760  25.131  10.825  1.00 20.00    +0.063 H 
ATOM     60 H60  LIG A   1      18.928  22.997  14.483  1.00 20.00    +0.063 H 
ATOM     61 H61  LIG A   1      19.102  25.077  15.742  1.00 20.00    +0.063 H 
ATOM     62 H62  LIG A   1      21.261  20.961  12.165  1.00 20.00    +0.072 H 
ATOM     63 H63  LIG A   1      24.415  23.383  13.223  1.00 20.00    +0.050 H 
ATOM     64 H64  LIG A   1      23.770  24.851  12.498  1.00 20.00    +0.050 H 
ATOM     65 H65  LIG A   1      23.298  22.025  11.386  1.00 20.00    +0.029 H 
ATOM     66 H66  LIG A   1      24.540  23.127  10.853  1.00 20.00    +0.029 H 
ATOM     67 H67  LIG A   1      21.707  24.152  10.815  1.00 20.00    +0.028 H 
ATOM     68 H68  LIG A   1      23.084  24.694   9.944  1.00 20.00    +0.028 H 
ATOM     69 H69  LIG A   1      23.100  22.705   8.562  1.00 20.00    +0.047 H 
ATOM     70 H70  LIG A   1      21.514  24.734   6.480  1.00 20.00    +0.296 HD
ATOM     71 H71  LIG A   1      22.855  20.574   8.057  1.00 20.00    +0.063 H 
ATOM     72 H72  LIG A   1      21.734  18.440   8.112  1.00 20.00    +0.064 H 
ATOM     73 H73  LIG A   1      18.347  18.019   9.532  1.00 20.00    +0.160 HD
ATOM     74 H74  LIG A   1      19.151  15.884   8.923  1.00 20.00    +0.049 H 
ATOM     75 H75  LIG A   1      20.698  16.541   8.450  1.00 20.00    +0.049 H 
ATOM     76 H76  LIG A   1      19.492  17.873   6.616  1.00 20.00    +0.030 H 
ATOM     77 H77  LIG A   1      17.979  17.138   7.131  1.00 20.00    +0.030 H 
ATOM     78 H78  LIG A   1      20.443  15.633   6.099  1.00 20.00    +0.043 H 
ATOM     79 H79  LIG A   1      18.947  14.860   6.659  1.00 20.00    +0.043 H 
ATOM     80 H80  LIG A   1      19.083  16.827   4.471  1.00 20.00    +0.122 HD
ATOM     81 H81  LIG A   1      19.832  14.165   4.352  1.00 20.00    +0.043 H 
ATOM     82 H82  LIG A   1      19.534  15.289   3.048  1.00 20.00    +0.043 H 
ATOM     83 H83  LIG A   1      18.083  13.409   2.702  1.00 20.00    +0.028 H 
ATOM     84 H84  LIG A   1      17.105  14.806   3.086  1.00 20.00    +0.028 H 
ATOM     85 H85  LIG A   1      16.198  12.873   4.219  1.00 20.00    +0.028 H 
ATOM     86 H86  LIG A   1      16.778  14.020   5.409  1.00 20.00    +0.028 H 
ATOM     87 H87  LIG A   1      17.350  11.767   6.104  1.00 20.00    +0.043 H 
ATOM     88 H88  LIG A   1      18.840  12.630   5.770  1.00 20.00    +0.043 H 
ATOM     89 H89  LIG A   1      18.903  11.545   3.623  1.00 20.00    +0.118 HD
ATOM     90 H90  LIG A   1      17.504  10.771   3.932  1.00 20.00    +0.118 HD
ATOM     91 H91  LIG A   1      18.567  20.138  10.461  1.00 20.00    +0.068 H 
ATOM     92 H92  LIG A   1      22.571  26.296  13.542  1.00 20.00    +0.057 H 
ATOM     93 H93  LIG A   1      24.646  25.370  14.530  1.00 20.00    +0.119 HD
ATOM     94 H94  LIG A   1      24.429  26.970  14.806  1.00 20.00    +0.119 HD
ATOM     95 H95  LIG A   1      20.700  19.491   6.834  1.00 20.00    +0.025 H 
ATOM     96 H96  LIG A   1      21.279  18.259   7.964  1.00 20.00    +0.025 H 
ATOM     97 H97  LIG A   1      19.738  18.028   7.115  1.00 20.00    +0.025 H 
ATOM     98 H98  LIG A   1      18.748  19.952   8.337  1.00 20.00    +0.049 H 
ATOM     99 H99  LIG A   1      19.334  18.706   9.460  1.00 20.00    +0.049 H 
ATOM    100 H100 LIG A   1      21.045  20.972   8.678  1.00 20.00    +0.163 HD
ATOM    101 H101 LIG A   1      18.514  20.266  10.747  1.00 20.00    +0.191 HD
ATOM    102 H102 LIG A   1      21.953  22.057  10.254  1.00 20.00    +0.173 HD
ATOM    103 H103 LIG A   1      19.393  22.747  12.302  1.00 20.00    +0.191 HD
ATOM    104 H104 LIG A   1      22.206  24.418  12.577  1.00 20.00    +0.159 HD
ATOM    105 H105 LIG A   1      23.080  23.129  12.055  1.00 20.00    +0.159 HD
ENDROOT
TORSDOF 0
                                                                                                            
ENDMDL
MODEL 4
REMARK VINA RESULT:   -12.035      6.909     13.013
REMARK INTER + INTRA:         -12.035
REMARK INTER:                 -12.035
REMARK INTRA:                   0.000
REMARK UNBOUND:                 0.000
ROOT
ATOM      1 C1   LIG A   1      24.314  20.538  11.794  1.00 20.00    -0.060 C 
ATOM      2 C2   LIG A   1      23.022  20.302  10.992  1.00 20.00    -0.016 C 
ATOM      3 C3   LIG A   1      23.195  21.066   9.634  1.00 20.00    -0.023 C 
ATOM      4 C4   LIG A   1      22.153  20.726   8.603  1.00 20.00    -0.048 A 
ATOM      5 C5   LIG A   1      22.490  19.898   7.529  1.00 20.00    -0.058 A 
ATOM      6 C6   LIG A   1      21.494  19.165   6.897  1.00 20.00    -0.051 A 
ATOM      7 C7   LIG A   1      20.188  19.221   7.390  1.00 20.00    +0.017 A 
ATOM      8 C8   LIG A   1      19.823  20.279   8.231  1.00 20.00    -0.051 A 
ATOM      9 C9   LIG A   1      20.814  21.047   8.834  1.00 20.00    -0.058 A 
ATOM     10 C10  LIG A   1      19.291  18.057   7.243  1.00 20.00    +0.140 C 
ATOM     11 C11  LIG A   1      18.768  17.424   8.317  1.00 20.00    +0.047 C 
ATOM     12 C12  LIG A   1      19.223  17.500   9.745  1.00 20.00    +0.256 C 
ATOM     13 O13  LIG A   1      18.431  17.174  10.627  1.00 20.00    -0.269 OA
ATOM     14 N14  LIG A   1      20.604  17.528   9.908  1.00 20.00    -0.278 NA
ATOM     15 C15  LIG A   1      21.273  16.217   9.941  1.00 20.00    +0.029 C 
ATOM     16 C16  LIG A   1      20.887  15.199   8.839  1.00 20.00    -0.034 C 
ATOM     17 C17  LIG A   1      21.455  15.578   7.467  1.00 20.00    -0.034 C 
ATOM     18 C18  LIG A   1      20.806  14.888   6.251  1.00 20.00    +0.085 C 
ATOM     19 C19  LIG A   1      21.640  15.221   5.020  1.00 20.00    +0.311 C 
ATOM     20 O20  LIG A   1      21.752  16.303   4.468  1.00 20.00    -0.252 OA
ATOM     21 O21  LIG A   1      22.337  14.157   4.564  1.00 20.00    -0.481 OA
ATOM     22 C22  LIG A   1      19.320  15.089   5.956  1.00 20.00    +0.009 A 
ATOM     23 C23  LIG A   1      18.547  13.924   5.784  1.00 20.00    -0.052 A 
ATOM     24 C24  LIG A   1      17.193  13.975   5.419  1.00 20.00    -0.038 A 
ATOM     25 C25  LIG A   1      16.556  15.188   5.161  1.00 20.00    +0.038 A 
ATOM     26 N26  LIG A   1      15.204  15.311   4.854  1.00 20.00    -0.385 NA
ATOM     27 C27  LIG A   1      14.401  14.194   4.367  1.00 20.00    +0.016 C 
ATOM     28 C28  LIG A   1      14.713  13.876   2.905  1.00 20.00    -0.023 C 
ATOM     29 C29  LIG A   1      13.846  12.715   2.411  1.00 20.00    -0.003 C 
ATOM     30 N30  LIG A   1      14.110  12.463   0.995  1.00 20.00    -0.317 NA
ATOM     31 C31  LIG A   1      13.374  11.304   0.486  1.00 20.00    -0.005 C 
ATOM     32 C32  LIG A   1      12.381  11.714  -0.607  1.00 20.00    -0.039 C 
ATOM     33 C33  LIG A   1      11.221  12.602  -0.138  1.00 20.00    -0.040 C 
ATOM     34 C34  LIG A   1      10.302  11.981   0.917  1.00 20.00    -0.008 C 
ATOM     35 N35  LIG A   1       9.618  10.781   0.448  1.00 20.00    -0.330 NA
ATOM     36 C36  LIG A   1      17.305  16.351   5.361  1.00 20.00    +0.004 A 
ATOM     37 C37  LIG A   1      18.654  16.312   5.760  1.00 20.00    +0.133 A 
ATOM     38 O38  LIG A   1      19.237  17.548   5.943  1.00 20.00    -0.456 OA
ATOM     39 C39  LIG A   1      21.072  18.581  10.707  1.00 20.00    +0.246 C 
ATOM     40 O40  LIG A   1      20.303  19.367  11.273  1.00 20.00    -0.273 OA
ATOM     41 C41  LIG A   1      22.632  18.772  10.854  1.00 20.00    +0.088 C 
ATOM     42 N42  LIG A   1      23.046  18.014  12.058  1.00 20.00    -0.320 NA
ATOM     43 C43  LIG A   1      16.676  13.848   4.090  1.00 20.00    -0.048 C 
ATOM     44 C44  LIG A   1      16.871  15.291   4.523  1.00 20.00    +0.015 C 
ATOM     45 N45  LIG A   1      17.916  15.366   5.531  1.00 20.00    -0.357 NA
ATOM     46 C46  LIG A   1      18.266  16.517   6.180  1.00 20.00    +0.195 C 
ATOM     47 N47  LIG A   1      17.663  17.652   6.063  1.00 20.00    -0.269 NA
ATOM     48 N48  LIG A   1      19.336  16.346   7.009  1.00 20.00    -0.298 NA
ATOM     49 C49  LIG A   1      20.063  17.221   7.744  1.00 20.00    +0.192 C 
ATOM     50 N50  LIG A   1      19.933  18.502   7.772  1.00 20.00    -0.269 NA
ATOM     51 N51  LIG A   1      21.020  16.647   8.510  1.00 20.00    -0.370 NA
ATOM     52 H52  LIG A   1      24.202  20.223  12.837  1.00 20.00    +0.023 H 
ATOM     53 H53  LIG A   1      24.572  21.603  11.813  1.00 20.00    +0.023 H 
ATOM     54 H54  LIG A   1      25.158  19.996  11.355  1.00 20.00    +0.023 H 
ATOM     55 H55  LIG A   1      22.222  20.812  11.545  1.00 20.00    +0.032 H 
ATOM     56 H56  LIG A   1      24.191  20.854   9.222  1.00 20.00    +0.032 H 
ATOM     57 H57  LIG A   1      23.174  22.149   9.817  1.00 20.00    +0.032 H 
ATOM     58 H58  LIG A   1      23.529  19.711   7.269  1.00 20.00    +0.063 H 
ATOM     59 H59  LIG A   1      21.776  18.439   6.138  1.00 20.00    +0.063 H 
ATOM     60 H60  LIG A   1      18.795  20.394   8.572  1.00 20.00    +0.063 H 
ATOM     61 H61  LIG A   1      20.533  21.734   9.632  1.00 20.00    +0.063 H 
ATOM     62 H62  LIG A   1      18.052  16.616   8.201  1.00 20.00    +0.072 H 
ATOM     63 H63  LIG A   1      21.029  15.771  10.914  1.00 20.00    +0.050 H 
ATOM     64 H64  LIG A   1      22.357  16.352   9.915  1.00 20.00    +0.050 H 
ATOM     65 H65  LIG A   1      19.805  15.050   8.804  1.00 20.00    +0.029 H 
ATOM     66 H66  LIG A   1      21.308  14.224   9.117  1.00 20.00    +0.029 H 
ATOM     67 H67  LIG A   1      21.437  16.651   7.337  1.00 20.00    +0.028 H 
ATOM     68 H68  LIG A   1      22.526  15.331   7.477  1.00 20.00    +0.028 H 
ATOM     69 H69  LIG A   1      20.954  13.812   6.433  1.00 20.00    +0.047 H 
ATOM     70 H70  LIG A   1      22.804  14.505   3.775  1.00 20.00    +0.296 HD
ATOM     71 H71  LIG A   1      18.994  12.940   5.927  1.00 20.00    +0.063 H 
ATOM     72 H72  LIG A   1      16.660  13.034   5.330  1.00 20.00    +0.064 H 
ATOM     73 H73  LIG A   1      14.981  16.193   4.398  1.00 20.00    +0.160 HD
ATOM     74 H74  LIG A   1      13.348  14.488   4.449  1.00 20.00    +0.049 H 
ATOM     75 H75  LIG A   1      14.513  13.312   5.005  1.00 20.00    +0.049 H 
ATOM     76 H76  LIG A   1      15.773  13.620   2.790  1.00 20.00    +0.030 H 
ATOM     77 H77  LIG A   1      14.536  14.766   2.289  1.00 20.00    +0.030 H 
ATOM     78 H78  LIG A   1      14.067  11.822   3.006  1.00 20.00    +0.043 H 
ATOM     79 H79  LIG A   1      12.791  12.968   2.553  1.00 20.00    +0.043 H 
ATOM     80 H80  LIG A   1      15.111  12.312   0.862  1.00 20.00    +0.122 HD
ATOM     81 H81  LIG A   1      12.870  10.740   1.279  1.00 20.00    +0.043 H 
ATOM     82 H82  LIG A   1      14.097  10.611   0.041  1.00 20.00    +0.043 H 
ATOM     83 H83  LIG A   1      11.983  10.807  -1.079  1.00 20.00    +0.028 H 
ATOM     84 H84  LIG A   1      12.923  12.247  -1.401  1.00 20.00    +0.028 H 
ATOM     85 H85  LIG A   1      10.620  12.876  -1.016  1.00 20.00    +0.028 H 
ATOM     86 H86  LIG A   1      11.620  13.544   0.256  1.00 20.00    +0.028 H 
ATOM     87 H87  LIG A   1       9.544  12.719   1.202  1.00 20.00    +0.043 H 
ATOM     88 H88  LIG A   1      10.857  11.739   1.829  1.00 20.00    +0.043 H 
ATOM     89 H89  LIG A   1      10.298  10.069   0.189  1.00 20.00    +0.118 HD
ATOM     90 H90  LIG A   1       9.101  10.998  -0.404  1.00 20.00    +0.118 HD
ATOM     91 H91  LIG A   1      16.836  17.322   5.223  1.00 20.00    +0.068 H 
ATOM     92 H92  LIG A   1      23.140  18.352   9.981  1.00 20.00    +0.057 H 
ATOM     93 H93  LIG A   1      22.687  17.063  12.048  1.00 20.00    +0.119 HD
ATOM     94 H94  LIG A   1      24.061  17.954  12.102  1.00 20.00    +0.119 HD
ATOM     95 H95  LIG A   1      17.596  13.434   3.666  1.00 20.00    +0.025 H 
ATOM     96 H96  LIG A   1      16.387  13.219   4.939  1.00 20.00    +0.025 H 
ATOM     97 H97  LIG A   1      15.890  13.781   3.331  1.00 20.00    +0.025 H 
ATOM     98 H98  LIG A   1      17.146  15.900   3.656  1.00 20.00    +0.049 H 
ATOM     99 H99  LIG A   1      15.927  15.671   4.929  1.00 20.00    +0.049 H 
ATOM    100 H100 LIG A   1      18.706  14.771   5.306  1.00 20.00    +0.163 HD
ATOM    101 H101 LIG A   1      16.881  17.572   5.416  1.00 20.00    +0.191 HD
ATOM    102 H102 LIG A   1      19.668  15.399   7.087  1.00 20.00    +0.173 HD
ATOM    103 H103 LIG A   1      19.142  18.707   7.133  1.00 20.00    +0.191 HD
ATOM    104 H104 LIG A   1      21.476  17.394   9.033  1.00 20.00    +0.159 HD
ATOM    105 H105 LIG A   1      20.635  15.990   9.178  1.00 20.00    +0.159 HD
ENDROOT
TORSDOF 0
                                                                                                            
ENDMDL
MODEL 5
REMARK VINA RESULT:   -11.975      3.641      6.345
REMARK INTER + INTRA:         -11.975
REMARK INTER:                 -11.975
REMARK INTRA:                   0.000
REMARK UNBOUND:                 0.000
ROOT
ATOM      1 C1   LIG A   1      21.681  11.779   3.479  1.00 20.00    -0.060 C 
ATOM      2 C2   LIG A   1      21.258  13.204   3.882  1.00 20.00    -0.016 C 
ATOM      3 C3   LIG A   1      19.710  13.158   4.125  1.00 20.00    -0.023 C 
ATOM      4 C4   LIG A   1      19.159  14.387   4.794  1.00 20.00    -0.048 A 
ATOM      5 C5   LIG A   1      18.800  14.335   6.144  1.00 20.00    -0.058 A 
ATOM      6 C6   LIG A   1      18.801  15.504   6.893  1.00 20.00    -0.051 A 
ATOM      7 C7   LIG A   1      19.224  16.695   6.299  1.00 20.00    +0.017 A 
ATOM      8 C8   LIG A   1      19.260  16.784   4.902  1.00 20.00    -0.051 A 
ATOM      9 C9   LIG A   1      19.214  15.620   4.141  1.00 20.00    -0.058 A 
ATOM     10 C10  LIG A   1      19.866  17.743   7.118  1.00 20.00    +0.140 C 
ATOM     11 C11  LIG A   1      21.129  18.161   6.872  1.00 20.00    +0.047 C 
ATOM     12 C12  LIG A   1      22.186  17.475   6.058  1.00 20.00    +0.256 C 
ATOM     13 O13  LIG A   1      23.122  18.149   5.633  1.00 20.00    -0.269 OA
ATOM     14 N14  LIG A   1      22.226  16.094   6.212  1.00 20.00    -0.278 NA
ATOM     15 C15  LIG A   1      23.018  15.598   7.350  1.00 20.00    +0.029 C 
ATOM     16 C16  LIG A   1      22.791  16.281   8.721  1.00 20.00    -0.034 C 
ATOM     17 C17  LIG A   1      21.446  15.900   9.349  1.00 20.00    -0.034 C 
ATOM     18 C18  LIG A   1      20.942  16.819  10.480  1.00 20.00    +0.085 C 
ATOM     19 C19  LIG A   1      19.724  16.160  11.114  1.00 20.00    +0.311 C 
ATOM     20 O20  LIG A   1      18.620  16.003  10.618  1.00 20.00    -0.252 OA
ATOM     21 O21  LIG A   1      19.979  15.684  12.353  1.00 20.00    -0.481 OA
ATOM     22 C22  LIG A   1      20.664  18.295  10.204  1.00 20.00    +0.009 A 
ATOM     23 C23  LIG A   1      21.281  19.226  11.062  1.00 20.00    -0.052 A 
ATOM     24 C24  LIG A   1      21.032  20.603  10.971  1.00 20.00    -0.038 A 
ATOM     25 C25  LIG A   1      20.120  21.117  10.050  1.00 20.00    +0.038 A 
ATOM     26 N26  LIG A   1      19.873  22.474   9.868  1.00 20.00    -0.385 NA
ATOM     27 C27  LIG A   1      20.213  23.479  10.870  1.00 20.00    +0.016 C 
ATOM     28 C28  LIG A   1      19.237  23.450  12.047  1.00 20.00    -0.023 C 
ATOM     29 C29  LIG A   1      19.602  24.525  13.074  1.00 20.00    -0.003 C 
ATOM     30 N30  LIG A   1      18.625  24.527  14.162  1.00 20.00    -0.317 NA
ATOM     31 C31  LIG A   1      18.970  25.475  15.223  1.00 20.00    -0.005 C 
ATOM     32 C32  LIG A   1      17.908  26.572  15.353  1.00 20.00    -0.039 C 
ATOM     33 C33  LIG A   1      17.795  27.520  14.152  1.00 20.00    -0.040 C 
ATOM     34 C34  LIG A   1      19.056  28.327  13.831  1.00 20.00    -0.008 C 
ATOM     35 N35  LIG A   1      19.455  29.223  14.910  1.00 20.00    -0.330 NA
ATOM     36 C36  LIG A   1      19.527  20.205   9.172  1.00 20.00    +0.004 A 
ATOM     37 C37  LIG A   1      19.796  18.825   9.233  1.00 20.00    +0.133 A 
ATOM     38 O38  LIG A   1      19.154  18.071   8.275  1.00 20.00    -0.456 OA
ATOM     39 C39  LIG A   1      22.187  15.375   5.009  1.00 20.00    +0.246 C 
ATOM     40 O40  LIG A   1      22.194  15.937   3.908  1.00 20.00    -0.273 OA
ATOM     41 C41  LIG A   1      22.106  13.799   5.082  1.00 20.00    +0.088 C 
ATOM     42 N42  LIG A   1      23.498  13.295   5.043  1.00 20.00    -0.320 NA
ATOM     43 C43  LIG A   1      20.087  21.341  11.755  1.00 20.00    -0.048 C 
ATOM     44 C44  LIG A   1      19.537  20.898  10.410  1.00 20.00    +0.015 C 
ATOM     45 N45  LIG A   1      20.232  19.704   9.961  1.00 20.00    -0.357 NA
ATOM     46 C46  LIG A   1      20.023  19.112   8.747  1.00 20.00    +0.195 C 
ATOM     47 N47  LIG A   1      19.268  19.578   7.811  1.00 20.00    -0.269 NA
ATOM     48 N48  LIG A   1      20.725  17.952   8.602  1.00 20.00    -0.298 NA
ATOM     49 C49  LIG A   1      20.733  17.011   7.627  1.00 20.00    +0.192 C 
ATOM     50 N50  LIG A   1      19.979  16.973   6.584  1.00 20.00    -0.269 NA
ATOM     51 N51  LIG A   1      21.639  16.023   7.811  1.00 20.00    -0.370 NA
ATOM     52 H52  LIG A   1      22.702  11.760   3.085  1.00 20.00    +0.023 H 
ATOM     53 H53  LIG A   1      21.030  11.390   2.687  1.00 20.00    +0.023 H 
ATOM     54 H54  LIG A   1      21.622  11.092   4.329  1.00 20.00    +0.023 H 
ATOM     55 H55  LIG A   1      21.425  13.833   2.998  1.00 20.00    +0.032 H 
ATOM     56 H56  LIG A   1      19.463  12.276   4.731  1.00 20.00    +0.032 H 
ATOM     57 H57  LIG A   1      19.194  13.013   3.166  1.00 20.00    +0.032 H 
ATOM     58 H58  LIG A   1      18.655  13.384   6.649  1.00 20.00    +0.063 H 
ATOM     59 H59  LIG A   1      18.631  15.442   7.966  1.00 20.00    +0.063 H 
ATOM     60 H60  LIG A   1      19.512  17.721   4.407  1.00 20.00    +0.063 H 
ATOM     61 H61  LIG A   1      19.438  15.680   3.076  1.00 20.00    +0.063 H 
ATOM     62 H62  LIG A   1      21.568  18.982   7.431  1.00 20.00    +0.072 H 
ATOM     63 H63  LIG A   1      24.072  15.735   7.074  1.00 20.00    +0.050 H 
ATOM     64 H64  LIG A   1      22.859  14.524   7.474  1.00 20.00    +0.050 H 
ATOM     65 H65  LIG A   1      22.911  17.365   8.644  1.00 20.00    +0.029 H 
ATOM     66 H66  LIG A   1      23.585  15.947   9.401  1.00 20.00    +0.029 H 
ATOM     67 H67  LIG A   1      20.689  15.804   8.585  1.00 20.00    +0.028 H 
ATOM     68 H68  LIG A   1      21.550  14.881   9.749  1.00 20.00    +0.028 H 
ATOM     69 H69  LIG A   1      21.737  16.779  11.242  1.00 20.00    +0.047 H 
ATOM     70 H70  LIG A   1      19.118  15.311  12.641  1.00 20.00    +0.296 HD
ATOM     71 H71  LIG A   1      21.972  18.889  11.835  1.00 20.00    +0.063 H 
ATOM     72 H72  LIG A   1      21.565  21.258  11.653  1.00 20.00    +0.064 H 
ATOM     73 H73  LIG A   1      18.984  22.656   9.406  1.00 20.00    +0.160 HD
ATOM     74 H74  LIG A   1      20.152  24.460  10.383  1.00 20.00    +0.049 H 
ATOM     75 H75  LIG A   1      21.250  23.377  11.203  1.00 20.00    +0.049 H 
ATOM     76 H76  LIG A   1      19.247  22.463  12.525  1.00 20.00    +0.030 H 
ATOM     77 H77  LIG A   1      18.215  23.611  11.681  1.00 20.00    +0.030 H 
ATOM     78 H78  LIG A   1      20.607  24.324  13.463  1.00 20.00    +0.043 H 
ATOM     79 H79  LIG A   1      19.614  25.502  12.583  1.00 20.00    +0.043 H 
ATOM     80 H80  LIG A   1      18.560  23.587  14.557  1.00 20.00    +0.122 HD
ATOM     81 H81  LIG A   1      19.967  25.910  15.094  1.00 20.00    +0.043 H 
ATOM     82 H82  LIG A   1      19.005  24.926  16.171  1.00 20.00    +0.043 H 
ATOM     83 H83  LIG A   1      18.110  27.151  16.262  1.00 20.00    +0.028 H 
ATOM     84 H84  LIG A   1      16.927  26.103  15.514  1.00 20.00    +0.028 H 
ATOM     85 H85  LIG A   1      16.966  28.216  14.340  1.00 20.00    +0.028 H 
ATOM     86 H86  LIG A   1      17.509  26.948  13.262  1.00 20.00    +0.028 H 
ATOM     87 H87  LIG A   1      18.869  28.930  12.936  1.00 20.00    +0.043 H 
ATOM     88 H88  LIG A   1      19.895  27.667  13.590  1.00 20.00    +0.043 H 
ATOM     89 H89  LIG A   1      19.650  28.689  15.755  1.00 20.00    +0.118 HD
ATOM     90 H90  LIG A   1      18.676  29.840  15.143  1.00 20.00    +0.118 HD
ATOM     91 H91  LIG A   1      18.849  20.565   8.401  1.00 20.00    +0.068 H 
ATOM     92 H92  LIG A   1      21.648  13.496   6.028  1.00 20.00    +0.057 H 
ATOM     93 H93  LIG A   1      24.091  13.767   5.720  1.00 20.00    +0.119 HD
ATOM     94 H94  LIG A   1      23.517  12.302   5.265  1.00 20.00    +0.119 HD
ATOM     95 H95  LIG A   1      19.958  20.560  12.511  1.00 20.00    +0.025 H 
ATOM     96 H96  LIG A   1      21.158  21.565  11.686  1.00 20.00    +0.025 H 
ATOM     97 H97  LIG A   1      19.570  22.242  12.101  1.00 20.00    +0.025 H 
ATOM     98 H98  LIG A   1      18.465  20.693  10.502  1.00 20.00    +0.049 H 
ATOM     99 H99  LIG A   1      19.674  21.709   9.686  1.00 20.00    +0.049 H 
ATOM    100 H100 LIG A   1      20.377  19.041  10.715  1.00 20.00    +0.163 HD
ATOM    101 H101 LIG A   1      18.846  20.458   8.102  1.00 20.00    +0.191 HD
ATOM    102 H102 LIG A   1      21.349  17.733   9.361  1.00 20.00    +0.173 HD
ATOM    103 H103 LIG A   1      19.389  17.826   6.646  1.00 20.00    +0.191 HD
ATOM    104 H104 LIG A   1      21.571  15.399   7.008  1.00 20.00    +0.159 HD
ATOM    105 H105 LIG A   1      22.589  16.375   7.852  1.00 20.00    +0.159 HD
ENDROOT
TORSDOF 0
                                                                                                            
ENDMDL
MODEL 6
REMARK VINA RESULT:   -11.887      2.419      3.680
REMARK INTER + INTRA:         -11.887
REMARK INTER:                 -11.887
REMARK INTRA:                   0.000
REMARK UNBOUND:                 0.000
ROOT
ATOM      1 C1   LIG A   1      21.365  13.672   5.280  1.00 20.00    -0.060 C 
ATOM      2 C2   LIG A   1      20.631  14.778   6.060  1.00 20.00    -0.016 C 
ATOM      3 C3   LIG A   1      20.156  14.132   7.407  1.00 20.00    -0.023 C 
ATOM      4 C4   LIG A   1      19.662  15.127   8.422  1.00 20.00    -0.048 A 
ATOM      5 C5   LIG A   1      20.468  15.451   9.518  1.00 20.00    -0.058 A 
ATOM      6 C6   LIG A   1      20.304  16.680  10.143  1.00 20.00    -0.051 A 
ATOM      7 C7   LIG A   1      19.383  17.592   9.622  1.00 20.00    +0.017 A 
ATOM      8 C8   LIG A   1      18.385  17.133   8.755  1.00 20.00    -0.051 A 
ATOM      9 C9   LIG A   1      18.519  15.883   8.158  1.00 20.00    -0.058 A 
ATOM     10 C10  LIG A   1      19.614  19.044   9.772  1.00 20.00    +0.140 C 
ATOM     11 C11  LIG A   1      19.747  19.855   8.699  1.00 20.00    +0.047 C 
ATOM     12 C12  LIG A   1      20.042  19.468   7.280  1.00 20.00    +0.256 C 
ATOM     13 O13  LIG A   1      19.761  20.267   6.389  1.00 20.00    -0.269 OA
ATOM     14 N14  LIG A   1      20.970  18.442   7.144  1.00 20.00    -0.278 NA
ATOM     15 C15  LIG A   1      22.384  18.851   7.150  1.00 20.00    +0.029 C 
ATOM     16 C16  LIG A   1      22.833  19.831   8.262  1.00 20.00    -0.034 C 
ATOM     17 C17  LIG A   1      22.907  19.161   9.638  1.00 20.00    -0.034 C 
ATOM     18 C18  LIG A   1      22.933  20.110  10.853  1.00 20.00    +0.085 C 
ATOM     19 C19  LIG A   1      23.227  19.277  12.094  1.00 20.00    +0.311 C 
ATOM     20 O20  LIG A   1      22.500  18.456  12.629  1.00 20.00    -0.252 OA
ATOM     21 O21  LIG A   1      24.467  19.497  12.583  1.00 20.00    -0.481 OA
ATOM     22 C22  LIG A   1      21.763  21.056  11.114  1.00 20.00    +0.009 A 
ATOM     23 C23  LIG A   1      22.078  22.417  11.291  1.00 20.00    -0.052 A 
ATOM     24 C24  LIG A   1      21.106  23.371  11.628  1.00 20.00    -0.038 A 
ATOM     25 C25  LIG A   1      19.778  23.006  11.850  1.00 20.00    +0.038 A 
ATOM     26 N26  LIG A   1      18.756  23.909  12.127  1.00 20.00    -0.385 NA
ATOM     27 C27  LIG A   1      19.007  25.259  12.618  1.00 20.00    +0.016 C 
ATOM     28 C28  LIG A   1      19.413  25.253  14.092  1.00 20.00    -0.023 C 
ATOM     29 C29  LIG A   1      19.653  26.681  14.589  1.00 20.00    -0.003 C 
ATOM     30 N30  LIG A   1      19.978  26.665  16.015  1.00 20.00    -0.317 NA
ATOM     31 C31  LIG A   1      20.306  27.995  16.530  1.00 20.00    -0.005 C 
ATOM     32 C32  LIG A   1      19.298  28.441  17.595  1.00 20.00    -0.039 C 
ATOM     33 C33  LIG A   1      17.870  28.679  17.086  1.00 20.00    -0.040 C 
ATOM     34 C34  LIG A   1      17.723  29.771  16.024  1.00 20.00    -0.008 C 
ATOM     35 N35  LIG A   1      18.117  31.092  16.501  1.00 20.00    -0.330 NA
ATOM     36 C36  LIG A   1      19.449  21.663  11.645  1.00 20.00    +0.004 A 
ATOM     37 C37  LIG A   1      20.410  20.705  11.274  1.00 20.00    +0.133 A 
ATOM     38 O38  LIG A   1      19.913  19.435  11.080  1.00 20.00    -0.456 OA
ATOM     39 C39  LIG A   1      20.544  17.378   6.337  1.00 20.00    +0.246 C 
ATOM     40 O40  LIG A   1      19.461  17.400   5.740  1.00 20.00    -0.273 OA
ATOM     41 C41  LIG A   1      21.476  16.109   6.218  1.00 20.00    +0.088 C 
ATOM     42 N42  LIG A   1      22.344  16.323   5.036  1.00 20.00    -0.320 NA
ATOM     43 C43  LIG A   1      20.808  23.838  12.948  1.00 20.00    -0.048 C 
ATOM     44 C44  LIG A   1      19.902  22.707  12.492  1.00 20.00    +0.015 C 
ATOM     45 N45  LIG A   1      20.588  21.891  11.505  1.00 20.00    -0.357 NA
ATOM     46 C46  LIG A   1      20.007  20.847  10.842  1.00 20.00    +0.195 C 
ATOM     47 N47  LIG A   1      18.764  20.511  10.926  1.00 20.00    -0.269 NA
ATOM     48 N48  LIG A   1      20.886  20.182  10.039  1.00 20.00    -0.298 NA
ATOM     49 C49  LIG A   1      20.765  19.051   9.303  1.00 20.00    +0.192 C 
ATOM     50 N50  LIG A   1      19.744  18.270   9.248  1.00 20.00    -0.269 NA
ATOM     51 N51  LIG A   1      21.859  18.745   8.566  1.00 20.00    -0.370 NA
ATOM     52 H52  LIG A   1      21.546  13.967   4.241  1.00 20.00    +0.023 H 
ATOM     53 H53  LIG A   1      20.765  12.755   5.247  1.00 20.00    +0.023 H 
ATOM     54 H54  LIG A   1      22.325  13.429   5.746  1.00 20.00    +0.023 H 
ATOM     55 H55  LIG A   1      19.727  15.010   5.481  1.00 20.00    +0.032 H 
ATOM     56 H56  LIG A   1      20.980  13.552   7.843  1.00 20.00    +0.032 H 
ATOM     57 H57  LIG A   1      19.357  13.406   7.204  1.00 20.00    +0.032 H 
ATOM     58 H58  LIG A   1      21.307  14.822   9.802  1.00 20.00    +0.063 H 
ATOM     59 H59  LIG A   1      21.005  16.973  10.921  1.00 20.00    +0.063 H 
ATOM     60 H60  LIG A   1      17.607  17.803   8.391  1.00 20.00    +0.063 H 
ATOM     61 H61  LIG A   1      17.848  15.616   7.343  1.00 20.00    +0.063 H 
ATOM     62 H62  LIG A   1      19.843  20.931   8.816  1.00 20.00    +0.072 H 
ATOM     63 H63  LIG A   1      22.569  19.331   6.180  1.00 20.00    +0.050 H 
ATOM     64 H64  LIG A   1      23.026  17.968   7.195  1.00 20.00    +0.050 H 
ATOM     65 H65  LIG A   1      22.200  20.723   8.277  1.00 20.00    +0.029 H 
ATOM     66 H66  LIG A   1      23.839  20.191   8.010  1.00 20.00    +0.029 H 
ATOM     67 H67  LIG A   1      22.109  18.440   9.747  1.00 20.00    +0.028 H 
ATOM     68 H68  LIG A   1      23.821  18.549   9.654  1.00 20.00    +0.028 H 
ATOM     69 H69  LIG A   1      23.824  20.737  10.693  1.00 20.00    +0.047 H 
ATOM     70 H70  LIG A   1      24.511  18.920  13.376  1.00 20.00    +0.296 HD
ATOM     71 H71  LIG A   1      23.105  22.764  11.176  1.00 20.00    +0.063 H 
ATOM     72 H72  LIG A   1      21.424  24.404  11.723  1.00 20.00    +0.064 H 
ATOM     73 H73  LIG A   1      17.948  23.469  12.563  1.00 20.00    +0.160 HD
ATOM     74 H74  LIG A   1      18.075  25.826  12.509  1.00 20.00    +0.049 H 
ATOM     75 H75  LIG A   1      19.744  25.779  11.999  1.00 20.00    +0.049 H 
ATOM     76 H76  LIG A   1      20.322  24.655  14.234  1.00 20.00    +0.030 H 
ATOM     77 H77  LIG A   1      18.626  24.774  14.688  1.00 20.00    +0.030 H 
ATOM     78 H78  LIG A   1      20.471  27.130  14.015  1.00 20.00    +0.043 H 
ATOM     79 H79  LIG A   1      18.750  27.277  14.421  1.00 20.00    +0.043 H 
ATOM     80 H80  LIG A   1      20.770  26.038  16.171  1.00 20.00    +0.122 HD
ATOM     81 H81  LIG A   1      20.394  28.746  15.737  1.00 20.00    +0.043 H 
ATOM     82 H82  LIG A   1      21.294  27.943  17.002  1.00 20.00    +0.043 H 
ATOM     83 H83  LIG A   1      19.674  29.353  18.075  1.00 20.00    +0.028 H 
ATOM     84 H84  LIG A   1      19.259  27.684  18.389  1.00 20.00    +0.028 H 
ATOM     85 H85  LIG A   1      17.236  28.931  17.947  1.00 20.00    +0.028 H 
ATOM     86 H86  LIG A   1      17.467  27.742  16.683  1.00 20.00    +0.028 H 
ATOM     87 H87  LIG A   1      16.675  29.818  15.710  1.00 20.00    +0.043 H 
ATOM     88 H88  LIG A   1      18.304  29.530  15.128  1.00 20.00    +0.043 H 
ATOM     89 H89  LIG A   1      19.095  31.084  16.787  1.00 20.00    +0.118 HD
ATOM     90 H90  LIG A   1      17.582  31.323  17.338  1.00 20.00    +0.118 HD
ATOM     91 H91  LIG A   1      18.415  21.341  11.755  1.00 20.00    +0.068 H 
ATOM     92 H92  LIG A   1      22.106  16.028   7.108  1.00 20.00    +0.057 H 
ATOM     93 H93  LIG A   1      22.792  17.235   5.056  1.00 20.00    +0.119 HD
ATOM     94 H94  LIG A   1      23.084  15.624   5.014  1.00 20.00    +0.119 HD
ATOM     95 H95  LIG A   1      21.728  23.451  13.398  1.00 20.00    +0.025 H 
ATOM     96 H96  LIG A   1      21.092  24.477  12.104  1.00 20.00    +0.025 H 
ATOM     97 H97  LIG A   1      20.299  24.459  13.692  1.00 20.00    +0.025 H 
ATOM     98 H98  LIG A   1      19.622  22.092  13.353  1.00 20.00    +0.049 H 
ATOM     99 H99  LIG A   1      18.990  23.135  12.061  1.00 20.00    +0.049 H 
ATOM    100 H100 LIG A   1      21.557  21.722  11.756  1.00 20.00    +0.163 HD
ATOM    101 H101 LIG A   1      18.270  21.137  11.559  1.00 20.00    +0.191 HD
ATOM    102 H102 LIG A   1      21.806  20.588   9.985  1.00 20.00    +0.173 HD
ATOM    103 H103 LIG A   1      19.035  18.708   9.868  1.00 20.00    +0.191 HD
ATOM    104 H104 LIG A   1      21.640  17.900   8.040  1.00 20.00    +0.159 HD
ATOM    105 H105 LIG A   1      22.093  19.473   7.903  1.00 20.00    +0.159 HD
ENDROOT
TORSDOF 0
                                                                                                            
ENDMDL
MODEL 7
REMARK VINA RESULT:   -11.598      4.246     10.953
REMARK INTER + INTRA:         -11.598
REMARK INTER:                 -11.598
REMARK INTRA:                   0.000
REMARK UNBOUND:                 0.000
ROOT
ATOM      1 C1   LIG A   1      23.923  25.974  14.080  1.00 20.00    -0.060 C 
ATOM      2 C2   LIG A   1      22.847  25.026  13.520  1.00 20.00    -0.016 C 
ATOM      3 C3   LIG A   1      21.992  25.869  12.511  1.00 20.00    -0.023 C 
ATOM      4 C4   LIG A   1      21.068  25.047  11.656  1.00 20.00    -0.048 A 
ATOM      5 C5   LIG A   1      21.390  24.819  10.315  1.00 20.00    -0.058 A 
ATOM      6 C6   LIG A   1      20.886  23.693   9.676  1.00 20.00    -0.051 A 
ATOM      7 C7   LIG A   1      20.122  22.779  10.406  1.00 20.00    +0.017 A 
ATOM      8 C8   LIG A   1      19.554  23.183  11.620  1.00 20.00    -0.051 A 
ATOM      9 C9   LIG A   1      20.022  24.334  12.246  1.00 20.00    -0.058 A 
ATOM     10 C10  LIG A   1      20.131  21.348  10.040  1.00 20.00    +0.140 C 
ATOM     11 C11  LIG A   1      20.553  20.398  10.904  1.00 20.00    +0.047 C 
ATOM     12 C12  LIG A   1      21.375  20.579  12.146  1.00 20.00    +0.256 C 
ATOM     13 O13  LIG A   1      21.349  19.690  12.996  1.00 20.00    -0.269 OA
ATOM     14 N14  LIG A   1      22.392  21.520  12.032  1.00 20.00    -0.278 NA
ATOM     15 C15  LIG A   1      23.660  21.029  11.468  1.00 20.00    +0.029 C 
ATOM     16 C16  LIG A   1      23.576  20.175  10.178  1.00 20.00    -0.034 C 
ATOM     17 C17  LIG A   1      23.223  21.012   8.944  1.00 20.00    -0.034 C 
ATOM     18 C18  LIG A   1      22.714  20.229   7.717  1.00 20.00    +0.085 C 
ATOM     19 C19  LIG A   1      22.631  21.196   6.543  1.00 20.00    +0.311 C 
ATOM     20 O20  LIG A   1      21.851  22.123   6.396  1.00 20.00    -0.252 OA
ATOM     21 O21  LIG A   1      23.584  20.965   5.614  1.00 20.00    -0.481 OA
ATOM     22 C22  LIG A   1      21.436  19.398   7.813  1.00 20.00    +0.009 A 
ATOM     23 C23  LIG A   1      21.523  18.055   7.399  1.00 20.00    -0.052 A 
ATOM     24 C24  LIG A   1      20.401  17.215   7.351  1.00 20.00    -0.038 A 
ATOM     25 C25  LIG A   1      19.127  17.686   7.668  1.00 20.00    +0.038 A 
ATOM     26 N26  LIG A   1      17.985  16.892   7.699  1.00 20.00    -0.385 NA
ATOM     27 C27  LIG A   1      17.902  15.603   7.020  1.00 20.00    +0.016 C 
ATOM     28 C28  LIG A   1      17.752  15.775   5.508  1.00 20.00    -0.023 C 
ATOM     29 C29  LIG A   1      17.648  14.412   4.820  1.00 20.00    -0.003 C 
ATOM     30 N30  LIG A   1      17.443  14.592   3.384  1.00 20.00    -0.317 NA
ATOM     31 C31  LIG A   1      17.424  13.322   2.656  1.00 20.00    -0.005 C 
ATOM     32 C32  LIG A   1      16.061  13.081   1.997  1.00 20.00    -0.039 C 
ATOM     33 C33  LIG A   1      14.893  12.868   2.969  1.00 20.00    -0.040 C 
ATOM     34 C34  LIG A   1      15.022  11.658   3.897  1.00 20.00    -0.008 C 
ATOM     35 N35  LIG A   1      15.079  10.388   3.182  1.00 20.00    -0.330 NA
ATOM     36 C36  LIG A   1      19.035  19.008   8.112  1.00 20.00    +0.004 A 
ATOM     37 C37  LIG A   1      20.160  19.849   8.196  1.00 20.00    +0.133 A 
ATOM     38 O38  LIG A   1      19.900  21.112   8.682  1.00 20.00    -0.456 OA
ATOM     39 C39  LIG A   1      22.396  22.494  13.040  1.00 20.00    +0.246 C 
ATOM     40 O40  LIG A   1      21.602  22.462  13.987  1.00 20.00    -0.273 OA
ATOM     41 C41  LIG A   1      23.436  23.677  12.933  1.00 20.00    +0.088 C 
ATOM     42 N42  LIG A   1      24.642  23.259  13.686  1.00 20.00    -0.320 NA
ATOM     43 C43  LIG A   1      19.604  16.941   6.193  1.00 20.00    -0.048 C 
ATOM     44 C44  LIG A   1      19.044  18.057   7.059  1.00 20.00    +0.015 C 
ATOM     45 N45  LIG A   1      20.119  18.695   7.800  1.00 20.00    -0.357 NA
ATOM     46 C46  LIG A   1      19.925  19.677   8.729  1.00 20.00    +0.195 C 
ATOM     47 N47  LIG A   1      18.777  20.098   9.141  1.00 20.00    -0.269 NA
ATOM     48 N48  LIG A   1      21.097  20.178   9.215  1.00 20.00    -0.298 NA
ATOM     49 C49  LIG A   1      21.367  21.209  10.051  1.00 20.00    +0.192 C 
ATOM     50 N50  LIG A   1      20.520  22.038  10.553  1.00 20.00    -0.269 NA
ATOM     51 N51  LIG A   1      22.677  21.350  10.361  1.00 20.00    -0.370 NA
ATOM     52 H52  LIG A   1      24.431  25.537  14.946  1.00 20.00    +0.023 H 
ATOM     53 H53  LIG A   1      23.473  26.915  14.421  1.00 20.00    +0.023 H 
ATOM     54 H54  LIG A   1      24.673  26.217  13.321  1.00 20.00    +0.023 H 
ATOM     55 H55  LIG A   1      22.191  24.777  14.364  1.00 20.00    +0.032 H 
ATOM     56 H56  LIG A   1      22.662  26.449  11.863  1.00 20.00    +0.032 H 
ATOM     57 H57  LIG A   1      21.399  26.611  13.064  1.00 20.00    +0.032 H 
ATOM     58 H58  LIG A   1      22.133  25.426   9.806  1.00 20.00    +0.063 H 
ATOM     59 H59  LIG A   1      21.228  23.461   8.671  1.00 20.00    +0.063 H 
ATOM     60 H60  LIG A   1      18.892  22.521  12.176  1.00 20.00    +0.063 H 
ATOM     61 H61  LIG A   1      19.718  24.535  13.273  1.00 20.00    +0.063 H 
ATOM     62 H62  LIG A   1      20.488  19.343  10.655  1.00 20.00    +0.072 H 
ATOM     63 H63  LIG A   1      24.127  20.416  12.249  1.00 20.00    +0.050 H 
ATOM     64 H64  LIG A   1      24.332  21.869  11.277  1.00 20.00    +0.050 H 
ATOM     65 H65  LIG A   1      22.890  19.334  10.309  1.00 20.00    +0.029 H 
ATOM     66 H66  LIG A   1      24.562  19.724  10.006  1.00 20.00    +0.029 H 
ATOM     67 H67  LIG A   1      22.519  21.789   9.207  1.00 20.00    +0.028 H 
ATOM     68 H68  LIG A   1      24.129  21.563   8.654  1.00 20.00    +0.028 H 
ATOM     69 H69  LIG A   1      23.532  19.532   7.476  1.00 20.00    +0.047 H 
ATOM     70 H70  LIG A   1      23.402  21.636   4.921  1.00 20.00    +0.296 HD
ATOM     71 H71  LIG A   1      22.481  17.633   7.095  1.00 20.00    +0.063 H 
ATOM     72 H72  LIG A   1      20.554  16.185   7.045  1.00 20.00    +0.064 H 
ATOM     73 H73  LIG A   1      17.125  17.433   7.636  1.00 20.00    +0.160 HD
ATOM     74 H74  LIG A   1      17.016  15.085   7.407  1.00 20.00    +0.049 H 
ATOM     75 H75  LIG A   1      18.753  14.963   7.271  1.00 20.00    +0.049 H 
ATOM     76 H76  LIG A   1      18.608  16.329   5.102  1.00 20.00    +0.030 H 
ATOM     77 H77  LIG A   1      16.859  16.375   5.293  1.00 20.00    +0.030 H 
ATOM     78 H78  LIG A   1      18.566  13.843   5.006  1.00 20.00    +0.043 H 
ATOM     79 H79  LIG A   1      16.808  13.856   5.248  1.00 20.00    +0.043 H 
ATOM     80 H80  LIG A   1      18.187  15.184   3.010  1.00 20.00    +0.122 HD
ATOM     81 H81  LIG A   1      17.710  12.471   3.283  1.00 20.00    +0.043 H 
ATOM     82 H82  LIG A   1      18.178  13.374   1.862  1.00 20.00    +0.043 H 
ATOM     83 H83  LIG A   1      16.144  12.218   1.325  1.00 20.00    +0.028 H 
ATOM     84 H84  LIG A   1      15.820  13.936   1.351  1.00 20.00    +0.028 H 
ATOM     85 H85  LIG A   1      13.971  12.768   2.381  1.00 20.00    +0.028 H 
ATOM     86 H86  LIG A   1      14.761  13.767   3.582  1.00 20.00    +0.028 H 
ATOM     87 H87  LIG A   1      14.156  11.635   4.568  1.00 20.00    +0.043 H 
ATOM     88 H88  LIG A   1      15.906  11.745   4.536  1.00 20.00    +0.043 H 
ATOM     89 H89  LIG A   1      15.885  10.373   2.559  1.00 20.00    +0.118 HD
ATOM     90 H90  LIG A   1      14.259  10.301   2.581  1.00 20.00    +0.118 HD
ATOM     91 H91  LIG A   1      18.070  19.405   8.421  1.00 20.00    +0.068 H 
ATOM     92 H92  LIG A   1      23.711  23.834  11.886  1.00 20.00    +0.057 H 
ATOM     93 H93  LIG A   1      24.955  22.331  13.413  1.00 20.00    +0.119 HD
ATOM     94 H94  LIG A   1      25.409  23.902  13.503  1.00 20.00    +0.119 HD
ATOM     95 H95  LIG A   1      20.337  17.327   5.477  1.00 20.00    +0.025 H 
ATOM     96 H96  LIG A   1      20.102  16.182   6.807  1.00 20.00    +0.025 H 
ATOM     97 H97  LIG A   1      18.801  16.454   5.631  1.00 20.00    +0.025 H 
ATOM     98 H98  LIG A   1      18.540  18.795   6.425  1.00 20.00    +0.049 H 
ATOM     99 H99  LIG A   1      18.307  17.634   7.750  1.00 20.00    +0.049 H 
ATOM    100 H100 LIG A   1      20.946  18.835   7.228  1.00 20.00    +0.163 HD
ATOM    101 H101 LIG A   1      18.027  19.590   8.675  1.00 20.00    +0.191 HD
ATOM    102 H102 LIG A   1      21.928  19.712   8.887  1.00 20.00    +0.173 HD
ATOM    103 H103 LIG A   1      19.595  21.728  10.197  1.00 20.00    +0.191 HD
ATOM    104 H104 LIG A   1      22.751  22.131  11.011  1.00 20.00    +0.159 HD
ATOM    105 H105 LIG A   1      23.055  20.528  10.817  1.00 20.00    +0.159 HD
ENDROOT
TORSDOF 0
                                                                                                            
ENDMDL
MODEL 8
REMARK VINA RESULT:   -11.521      5.388      8.405
REMARK INTER + INTRA:         -11.521
REMARK INTER:                 -11.521
REMARK INTRA:                   0.000
REMARK UNBOUND:                 0.000
ROOT
ATOM      1 C1   LIG A   1      17.584  10.089   2.944  1.00 20.00    -0.060 C 
ATOM      2 C2   LIG A   1      17.364  11.437   3.654  1.00 20.00    -0.016 C 
ATOM      3 C3   LIG A   1      16.475  11.139   4.911  1.00 20.00    -0.023 C 
ATOM      4 C4   LIG A   1      16.384  12.285   5.881  1.00 20.00    -0.048 A 
ATOM      5 C5   LIG A   1      17.102  12.232   7.080  1.00 20.00    -0.058 A 
ATOM      6 C6   LIG A   1      17.458  13.415   7.713  1.00 20.00    -0.051 A 
ATOM      7 C7   LIG A   1      17.148  14.634   7.104  1.00 20.00    +0.017 A 
ATOM      8 C8   LIG A   1      16.170  14.666   6.103  1.00 20.00    -0.051 A 
ATOM      9 C9   LIG A   1      15.775  13.480   5.494  1.00 20.00    -0.058 A 
ATOM     10 C10  LIG A   1      18.014  15.811   7.323  1.00 20.00    +0.140 C 
ATOM     11 C11  LIG A   1      18.647  16.426   6.298  1.00 20.00    +0.047 C 
ATOM     12 C12  LIG A   1      18.902  15.895   4.919  1.00 20.00    +0.256 C 
ATOM     13 O13  LIG A   1      19.144  16.699   4.021  1.00 20.00    -0.269 OA
ATOM     14 N14  LIG A   1      19.247  14.549   4.874  1.00 20.00    -0.278 NA
ATOM     15 C15  LIG A   1      20.674  14.246   5.072  1.00 20.00    +0.029 C 
ATOM     16 C16  LIG A   1      21.386  14.939   6.259  1.00 20.00    -0.034 C 
ATOM     17 C17  LIG A   1      20.962  14.363   7.614  1.00 20.00    -0.034 C 
ATOM     18 C18  LIG A   1      21.278  15.231   8.849  1.00 20.00    +0.085 C 
ATOM     19 C19  LIG A   1      20.987  14.403  10.094  1.00 20.00    +0.311 C 
ATOM     20 O20  LIG A   1      19.898  14.039  10.508  1.00 20.00    -0.252 OA
ATOM     21 O21  LIG A   1      22.112  14.032  10.744  1.00 20.00    -0.481 OA
ATOM     22 C22  LIG A   1      20.668  16.625   8.984  1.00 20.00    +0.009 A 
ATOM     23 C23  LIG A   1      21.561  17.684   9.238  1.00 20.00    -0.052 A 
ATOM     24 C24  LIG A   1      21.118  18.994   9.474  1.00 20.00    -0.038 A 
ATOM     25 C25  LIG A   1      19.759  19.304   9.514  1.00 20.00    +0.038 A 
ATOM     26 N26  LIG A   1      19.255  20.590   9.683  1.00 20.00    -0.385 NA
ATOM     27 C27  LIG A   1      20.048  21.681  10.239  1.00 20.00    +0.016 C 
ATOM     28 C28  LIG A   1      20.214  21.538  11.753  1.00 20.00    -0.023 C 
ATOM     29 C29  LIG A   1      21.032  22.702  12.316  1.00 20.00    -0.003 C 
ATOM     30 N30  LIG A   1      21.129  22.586  13.770  1.00 20.00    -0.317 NA
ATOM     31 C31  LIG A   1      21.976  23.624  14.360  1.00 20.00    -0.005 C 
ATOM     32 C32  LIG A   1      21.171  24.530  15.299  1.00 20.00    -0.039 C 
ATOM     33 C33  LIG A   1      20.100  25.392  14.618  1.00 20.00    -0.040 C 
ATOM     34 C34  LIG A   1      20.619  26.386  13.577  1.00 20.00    -0.008 C 
ATOM     35 N35  LIG A   1      21.524  27.384  14.137  1.00 20.00    -0.330 NA
ATOM     36 C36  LIG A   1      18.865  18.267   9.231  1.00 20.00    +0.004 A 
ATOM     37 C37  LIG A   1      19.301  16.957   8.959  1.00 20.00    +0.133 A 
ATOM     38 O38  LIG A   1      18.294  16.063   8.669  1.00 20.00    -0.456 OA
ATOM     39 C39  LIG A   1      18.476  13.782   3.989  1.00 20.00    +0.246 C 
ATOM     40 O40  LIG A   1      17.615  14.288   3.260  1.00 20.00    -0.273 OA
ATOM     41 C41  LIG A   1      18.709  12.220   3.955  1.00 20.00    +0.088 C 
ATOM     42 N42  LIG A   1      19.716  11.959   2.901  1.00 20.00    -0.320 NA
ATOM     43 C43  LIG A   1      20.911  19.593  10.757  1.00 20.00    -0.048 C 
ATOM     44 C44  LIG A   1      19.645  19.005  10.158  1.00 20.00    +0.015 C 
ATOM     45 N45  LIG A   1      19.986  17.927   9.245  1.00 20.00    -0.357 NA
ATOM     46 C46  LIG A   1      19.070  17.256   8.484  1.00 20.00    +0.195 C 
ATOM     47 N47  LIG A   1      17.816  17.546   8.398  1.00 20.00    -0.269 NA
ATOM     48 N48  LIG A   1      19.626  16.228   7.781  1.00 20.00    -0.298 NA
ATOM     49 C49  LIG A   1      19.082  15.260   7.005  1.00 20.00    +0.192 C 
ATOM     50 N50  LIG A   1      17.829  15.049   6.798  1.00 20.00    -0.269 NA
ATOM     51 N51  LIG A   1      19.986  14.450   6.406  1.00 20.00    -0.370 NA
ATOM     52 H52  LIG A   1      18.011  10.227   1.945  1.00 20.00    +0.023 H 
ATOM     53 H53  LIG A   1      16.632   9.561   2.808  1.00 20.00    +0.023 H 
ATOM     54 H54  LIG A   1      18.249   9.440   3.522  1.00 20.00    +0.023 H 
ATOM     55 H55  LIG A   1      16.757  12.046   2.970  1.00 20.00    +0.032 H 
ATOM     56 H56  LIG A   1      16.867  10.256   5.432  1.00 20.00    +0.032 H 
ATOM     57 H57  LIG A   1      15.462  10.867   4.586  1.00 20.00    +0.032 H 
ATOM     58 H58  LIG A   1      17.503  11.293   7.452  1.00 20.00    +0.063 H 
ATOM     59 H59  LIG A   1      18.110  13.372   8.582  1.00 20.00    +0.063 H 
ATOM     60 H60  LIG A   1      15.852  15.610   5.662  1.00 20.00    +0.063 H 
ATOM     61 H61  LIG A   1      15.165  13.530   4.592  1.00 20.00    +0.063 H 
ATOM     62 H62  LIG A   1      19.222  17.334   6.457  1.00 20.00    +0.072 H 
ATOM     63 H63  LIG A   1      21.183  14.548   4.148  1.00 20.00    +0.050 H 
ATOM     64 H64  LIG A   1      20.814  13.167   5.174  1.00 20.00    +0.050 H 
ATOM     65 H65  LIG A   1      21.251  16.024   6.219  1.00 20.00    +0.029 H 
ATOM     66 H66  LIG A   1      22.466  14.775   6.149  1.00 20.00    +0.029 H 
ATOM     67 H67  LIG A   1      19.912  14.106   7.601  1.00 20.00    +0.028 H 
ATOM     68 H68  LIG A   1      21.470  13.395   7.731  1.00 20.00    +0.028 H 
ATOM     69 H69  LIG A   1      22.371  15.360   8.822  1.00 20.00    +0.047 H 
ATOM     70 H70  LIG A   1      21.779  13.531  11.519  1.00 20.00    +0.296 HD
ATOM     71 H71  LIG A   1      22.636  17.503   9.265  1.00 20.00    +0.063 H 
ATOM     72 H72  LIG A   1      21.870  19.759   9.638  1.00 20.00    +0.064 H 
ATOM     73 H73  LIG A   1      18.288  20.598   9.999  1.00 20.00    +0.160 HD
ATOM     74 H74  LIG A   1      19.514  22.615  10.028  1.00 20.00    +0.049 H 
ATOM     75 H75  LIG A   1      21.015  21.771   9.734  1.00 20.00    +0.049 H 
ATOM     76 H76  LIG A   1      20.709  20.589  11.992  1.00 20.00    +0.030 H 
ATOM     77 H77  LIG A   1      19.226  21.506  12.229  1.00 20.00    +0.030 H 
ATOM     78 H78  LIG A   1      22.030  22.693  11.864  1.00 20.00    +0.043 H 
ATOM     79 H79  LIG A   1      20.545  23.646  12.050  1.00 20.00    +0.043 H 
ATOM     80 H80  LIG A   1      21.506  21.667  14.009  1.00 20.00    +0.122 HD
ATOM     81 H81  LIG A   1      22.506  24.217  13.606  1.00 20.00    +0.043 H 
ATOM     82 H82  LIG A   1      22.755  23.131  14.953  1.00 20.00    +0.043 H 
ATOM     83 H83  LIG A   1      21.868  25.174  15.849  1.00 20.00    +0.028 H 
ATOM     84 H84  LIG A   1      20.680  23.908  16.060  1.00 20.00    +0.028 H 
ATOM     85 H85  LIG A   1      19.556  25.943  15.397  1.00 20.00    +0.028 H 
ATOM     86 H86  LIG A   1      19.358  24.740  14.141  1.00 20.00    +0.028 H 
ATOM     87 H87  LIG A   1      19.765  26.909  13.133  1.00 20.00    +0.043 H 
ATOM     88 H88  LIG A   1      21.126  25.869  12.757  1.00 20.00    +0.043 H 
ATOM     89 H89  LIG A   1      22.338  26.927  14.546  1.00 20.00    +0.118 HD
ATOM     90 H90  LIG A   1      21.060  27.868  14.905  1.00 20.00    +0.118 HD
ATOM     91 H91  LIG A   1      17.797  18.472   9.198  1.00 20.00    +0.068 H 
ATOM     92 H92  LIG A   1      19.108  11.885   4.916  1.00 20.00    +0.057 H 
ATOM     93 H93  LIG A   1      20.534  12.554   3.004  1.00 20.00    +0.119 HD
ATOM     94 H94  LIG A   1      20.037  10.994   2.955  1.00 20.00    +0.119 HD
ATOM     95 H95  LIG A   1      21.475  18.836  11.311  1.00 20.00    +0.025 H 
ATOM     96 H96  LIG A   1      21.566  19.993   9.975  1.00 20.00    +0.025 H 
ATOM     97 H97  LIG A   1      20.665  20.407  11.447  1.00 20.00    +0.025 H 
ATOM     98 H98  LIG A   1      19.002  18.625  10.959  1.00 20.00    +0.049 H 
ATOM     99 H99  LIG A   1      19.104  19.795   9.626  1.00 20.00    +0.049 H 
ATOM    100 H100 LIG A   1      20.720  17.333   9.613  1.00 20.00    +0.163 HD
ATOM    101 H101 LIG A   1      17.599  18.353   8.980  1.00 20.00    +0.191 HD
ATOM    102 H102 LIG A   1      20.628  16.152   7.857  1.00 20.00    +0.173 HD
ATOM    103 H103 LIG A   1      17.338  15.790   7.334  1.00 20.00    +0.191 HD
ATOM    104 H104 LIG A   1      19.464  13.788   5.833  1.00 20.00    +0.159 HD
ATOM    105 H105 LIG A   1      20.617  14.959   5.799  1.00 20.00    +0.159 HD
ENDROOT
TORSDOF 0
                                                                                                            
ENDMDL
MODEL 9
REMARK VINA RESULT:   -11.352      4.921     11.801
REMARK INTER + INTRA:         -11.352
REMARK INTER:                 -11.352
REMARK INTRA:                   0.000
REMARK UNBOUND:                 0.000
ROOT
ATOM      1 C1   LIG A   1      23.790  25.316  12.276  1.00 20.00    -0.060 C 
ATOM      2 C2   LIG A   1      22.775  24.603  11.365  1.00 20.00    -0.016 C 
ATOM      3 C3   LIG A   1      23.045  25.118   9.908  1.00 20.00    -0.023 C 
ATOM      4 C4   LIG A   1      22.338  24.329   8.840  1.00 20.00    -0.048 A 
ATOM      5 C5   LIG A   1      23.065  23.433   8.050  1.00 20.00    -0.058 A 
ATOM      6 C6   LIG A   1      22.410  22.359   7.462  1.00 20.00    -0.051 A 
ATOM      7 C7   LIG A   1      21.052  22.160   7.726  1.00 20.00    +0.017 A 
ATOM      8 C8   LIG A   1      20.295  23.222   8.234  1.00 20.00    -0.051 A 
ATOM      9 C9   LIG A   1      20.943  24.323   8.785  1.00 20.00    -0.058 A 
ATOM     10 C10  LIG A   1      20.490  20.794   7.719  1.00 20.00    +0.140 C 
ATOM     11 C11  LIG A   1      19.915  20.258   8.819  1.00 20.00    +0.047 C 
ATOM     12 C12  LIG A   1      20.041  20.716  10.242  1.00 20.00    +0.256 C 
ATOM     13 O13  LIG A   1      19.179  20.364  11.046  1.00 20.00    -0.269 OA
ATOM     14 N14  LIG A   1      21.316  21.137  10.601  1.00 20.00    -0.278 NA
ATOM     15 C15  LIG A   1      22.243  20.079  11.037  1.00 20.00    +0.029 C 
ATOM     16 C16  LIG A   1      22.329  18.809  10.155  1.00 20.00    -0.034 C 
ATOM     17 C17  LIG A   1      23.064  19.061   8.834  1.00 20.00    -0.034 C 
ATOM     18 C18  LIG A   1      22.849  18.009   7.727  1.00 20.00    +0.085 C 
ATOM     19 C19  LIG A   1      23.819  18.315   6.593  1.00 20.00    +0.311 C 
ATOM     20 O20  LIG A   1      23.795  19.265   5.829  1.00 20.00    -0.252 OA
ATOM     21 O21  LIG A   1      24.816  17.406   6.507  1.00 20.00    -0.481 OA
ATOM     22 C22  LIG A   1      21.448  17.753   7.174  1.00 20.00    +0.009 A 
ATOM     23 C23  LIG A   1      21.009  16.415   7.162  1.00 20.00    -0.052 A 
ATOM     24 C24  LIG A   1      19.782  16.038   6.595  1.00 20.00    -0.038 A 
ATOM     25 C25  LIG A   1      18.954  16.970   5.970  1.00 20.00    +0.038 A 
ATOM     26 N26  LIG A   1      17.701  16.672   5.443  1.00 20.00    -0.385 NA
ATOM     27 C27  LIG A   1      17.287  15.313   5.112  1.00 20.00    +0.016 C 
ATOM     28 C28  LIG A   1      17.954  14.821   3.827  1.00 20.00    -0.023 C 
ATOM     29 C29  LIG A   1      17.489  13.401   3.491  1.00 20.00    -0.003 C 
ATOM     30 N30  LIG A   1      18.086  12.968   2.228  1.00 20.00    -0.317 NA
ATOM     31 C31  LIG A   1      17.750  11.582   1.896  1.00 20.00    -0.005 C 
ATOM     32 C32  LIG A   1      16.934  11.505   0.601  1.00 20.00    -0.039 C 
ATOM     33 C33  LIG A   1      15.533  12.127   0.672  1.00 20.00    -0.040 C 
ATOM     34 C34  LIG A   1      14.582  11.493   1.691  1.00 20.00    -0.008 C 
ATOM     35 N35  LIG A   1      14.296  10.090   1.414  1.00 20.00    -0.330 NA
ATOM     36 C36  LIG A   1      19.366  18.305   6.006  1.00 20.00    +0.004 A 
ATOM     37 C37  LIG A   1      20.578  18.698   6.602  1.00 20.00    +0.133 A 
ATOM     38 O38  LIG A   1      20.817  20.055   6.579  1.00 20.00    -0.456 OA
ATOM     39 C39  LIG A   1      21.362  22.407  11.195  1.00 20.00    +0.246 C 
ATOM     40 O40  LIG A   1      20.338  23.053  11.442  1.00 20.00    -0.273 OA
ATOM     41 C41  LIG A   1      22.776  23.026  11.528  1.00 20.00    +0.088 C 
ATOM     42 N42  LIG A   1      23.095  22.643  12.923  1.00 20.00    -0.320 NA
ATOM     43 C43  LIG A   1      19.588  15.533   5.269  1.00 20.00    -0.048 C 
ATOM     44 C44  LIG A   1      19.361  17.031   5.381  1.00 20.00    +0.015 C 
ATOM     45 N45  LIG A   1      20.134  17.566   6.489  1.00 20.00    -0.357 NA
ATOM     46 C46  LIG A   1      20.076  18.868   6.900  1.00 20.00    +0.195 C 
ATOM     47 N47  LIG A   1      19.271  19.762   6.434  1.00 20.00    -0.269 NA
ATOM     48 N48  LIG A   1      20.965  19.143   7.897  1.00 20.00    -0.298 NA
ATOM     49 C49  LIG A   1      21.312  20.301   8.510  1.00 20.00    +0.192 C 
ATOM     50 N50  LIG A   1      20.894  21.483   8.221  1.00 20.00    -0.269 NA
ATOM     51 N51  LIG A   1      22.196  20.152   9.524  1.00 20.00    -0.370 NA
ATOM     52 H52  LIG A   1      23.541  25.183  13.334  1.00 20.00    +0.023 H 
ATOM     53 H53  LIG A   1      23.791  26.396  12.086  1.00 20.00    +0.023 H 
ATOM     54 H54  LIG A   1      24.805  24.944  12.107  1.00 20.00    +0.023 H 
ATOM     55 H55  LIG A   1      21.785  24.978  11.658  1.00 20.00    +0.032 H 
ATOM     56 H56  LIG A   1      24.125  25.103   9.712  1.00 20.00    +0.032 H 
ATOM     57 H57  LIG A   1      22.743  26.171   9.831  1.00 20.00    +0.032 H 
ATOM     58 H58  LIG A   1      24.149  23.482   8.000  1.00 20.00    +0.063 H 
ATOM     59 H59  LIG A   1      22.996  21.604   6.943  1.00 20.00    +0.063 H 
ATOM     60 H60  LIG A   1      19.220  23.123   8.380  1.00 20.00    +0.063 H 
ATOM     61 H61  LIG A   1      20.358  25.048   9.351  1.00 20.00    +0.063 H 
ATOM     62 H62  LIG A   1      19.438  19.283   8.786  1.00 20.00    +0.072 H 
ATOM     63 H63  LIG A   1      21.913  19.775  12.038  1.00 20.00    +0.050 H 
ATOM     64 H64  LIG A   1      23.250  20.488  11.144  1.00 20.00    +0.050 H 
ATOM     65 H65  LIG A   1      21.338  18.376   9.993  1.00 20.00    +0.029 H 
ATOM     66 H66  LIG A   1      22.893  18.048  10.712  1.00 20.00    +0.029 H 
ATOM     67 H67  LIG A   1      22.832  20.048   8.459  1.00 20.00    +0.028 H 
ATOM     68 H68  LIG A   1      24.138  19.111   9.063  1.00 20.00    +0.028 H 
ATOM     69 H69  LIG A   1      23.195  17.064   8.174  1.00 20.00    +0.047 H 
ATOM     70 H70  LIG A   1      25.343  17.712   5.738  1.00 20.00    +0.296 HD
ATOM     71 H71  LIG A   1      21.627  15.628   7.594  1.00 20.00    +0.063 H 
ATOM     72 H72  LIG A   1      19.504  14.990   6.647  1.00 20.00    +0.064 H 
ATOM     73 H73  LIG A   1      17.383  17.363   4.766  1.00 20.00    +0.160 HD
ATOM     74 H74  LIG A   1      16.200  15.329   4.964  1.00 20.00    +0.049 H 
ATOM     75 H75  LIG A   1      17.462  14.627   5.947  1.00 20.00    +0.049 H 
ATOM     76 H76  LIG A   1      19.045  14.836   3.936  1.00 20.00    +0.030 H 
ATOM     77 H77  LIG A   1      17.710  15.502   3.003  1.00 20.00    +0.030 H 
ATOM     78 H78  LIG A   1      17.779  12.725   4.303  1.00 20.00    +0.043 H 
ATOM     79 H79  LIG A   1      16.398  13.390   3.410  1.00 20.00    +0.043 H 
ATOM     80 H80  LIG A   1      19.101  13.064   2.287  1.00 20.00    +0.122 HD
ATOM     81 H81  LIG A   1      17.235  11.064   2.713  1.00 20.00    +0.043 H 
ATOM     82 H82  LIG A   1      18.686  11.034   1.738  1.00 20.00    +0.043 H 
ATOM     83 H83  LIG A   1      16.856  10.454   0.298  1.00 20.00    +0.028 H 
ATOM     84 H84  LIG A   1      17.492  12.003  -0.203  1.00 20.00    +0.028 H 
ATOM     85 H85  LIG A   1      15.078  12.063  -0.326  1.00 20.00    +0.028 H 
ATOM     86 H86  LIG A   1      15.621  13.197   0.892  1.00 20.00    +0.028 H 
ATOM     87 H87  LIG A   1      13.637  12.045   1.680  1.00 20.00    +0.043 H 
ATOM     88 H88  LIG A   1      14.980  11.581   2.707  1.00 20.00    +0.043 H 
ATOM     89 H89  LIG A   1      15.158   9.547   1.433  1.00 20.00    +0.118 HD
ATOM     90 H90  LIG A   1      13.928  10.000   0.467  1.00 20.00    +0.118 HD
ATOM     91 H91  LIG A   1      18.727  19.075   5.578  1.00 20.00    +0.068 H 
ATOM     92 H92  LIG A   1      23.533  22.599  10.863  1.00 20.00    +0.057 H 
ATOM     93 H93  LIG A   1      22.970  21.647  13.079  1.00 20.00    +0.119 HD
ATOM     94 H94  LIG A   1      24.067  22.861  13.132  1.00 20.00    +0.119 HD
ATOM     95 H95  LIG A   1      20.645  15.305   5.096  1.00 20.00    +0.025 H 
ATOM     96 H96  LIG A   1      19.282  15.020   6.187  1.00 20.00    +0.025 H 
ATOM     97 H97  LIG A   1      19.009  15.120   4.437  1.00 20.00    +0.025 H 
ATOM     98 H98  LIG A   1      19.663  17.519   4.448  1.00 20.00    +0.049 H 
ATOM     99 H99  LIG A   1      18.294  17.217   5.540  1.00 20.00    +0.049 H 
ATOM    100 H100 LIG A   1      21.067  17.169   6.530  1.00 20.00    +0.163 HD
ATOM    101 H101 LIG A   1      18.675  19.359   5.712  1.00 20.00    +0.191 HD
ATOM    102 H102 LIG A   1      21.479  18.349   8.241  1.00 20.00    +0.173 HD
ATOM    103 H103 LIG A   1      20.223  21.350   7.440  1.00 20.00    +0.191 HD
ATOM    104 H104 LIG A   1      22.356  21.077   9.922  1.00 20.00    +0.159 HD
ATOM    105 H105 LIG A   1      21.841  19.554  10.260  1.00 20.00    +0.159 HD
ENDROOT
TORSDOF 0
                                                                                                            
ENDMDL
