MODEL 1
REMARK VINA RESULT:   -11.384      0.000      0.000
REMARK INTER + INTRA:         -11.384
REMARK INTER:                 -11.384
REMARK INTRA:                   0.000
REMARK UNBOUND:                 0.000
ROOT
ATOM      1 C1   LIG A   1      22.613  23.945  11.836  1.00 20.00    -0.056 C 
ATOM      2 C2   LIG A   1      23.111  22.746  12.625  1.00 20.00    -0.002 C 
ATOM      3 S3   LIG A   1      22.964  21.218  11.656  1.00 20.00    -0.087 SA
ATOM      4 C4   LIG A   1      21.257  20.851  11.896  1.00 20.00    +0.205 C 
ATOM      5 O5   LIG A   1      20.557  21.474  12.690  1.00 20.00    -0.285 OA
ATOM      6 C6   LIG A   1      20.722  19.674  11.058  1.00 20.00    +0.074 C 
ATOM      7 N7   LIG A   1      19.911  18.789  11.929  1.00 20.00    -0.321 NA
ATOM      8 C8   LIG A   1      19.865  20.227   9.910  1.00 20.00    -0.028 C 
ATOM      9 C9   LIG A   1      19.627  19.255   8.748  1.00 20.00    -0.034 C 
ATOM     10 C10  LIG A   1      18.975  17.929   9.141  1.00 20.00    +0.018 C 
ATOM     11 N11  LIG A   1      18.499  17.216   7.961  1.00 20.00    -0.357 NA
ATOM     12 C12  LIG A   1      19.342  16.582   7.113  1.00 20.00    +0.185 C 
ATOM     13 N13  LIG A   1      20.605  16.448   7.278  1.00 20.00    -0.270 NA
ATOM     14 N14  LIG A   1      18.673  16.074   6.057  1.00 20.00    -0.370 NA
ATOM     15 N15  LIG A   1      26.108  22.425  14.841  1.00 20.00    -0.289 NA
ATOM     16 C16  LIG A   1      25.854  23.477  15.545  1.00 20.00    +0.092 C 
ATOM     17 N17  LIG A   1      24.882  23.476  16.501  1.00 20.00    -0.388 NA
ATOM     18 C18  LIG A   1      26.670  24.730  15.289  1.00 20.00    +0.022 C 
ATOM     19 C19  LIG A   1      25.852  25.866  14.681  1.00 20.00    +0.022 C 
ATOM     20 N20  LIG A   1      25.311  25.518  13.360  1.00 20.00    -0.384 NA
ATOM     21 C21  LIG A   1      23.974  25.098  13.316  1.00 20.00    +0.038 A 
ATOM     22 C22  LIG A   1      22.940  25.875  13.858  1.00 20.00    -0.038 A 
ATOM     23 C23  LIG A   1      21.614  25.440  13.813  1.00 20.00    -0.045 A 
ATOM     24 C24  LIG A   1      21.311  24.219  13.208  1.00 20.00    +0.065 A 
ATOM     25 C25  LIG A   1      19.929  23.727  13.155  1.00 20.00    +0.193 C 
ATOM     26 O26  LIG A   1      18.995  24.340  13.655  1.00 20.00    -0.289 OA
ATOM     27 C27  LIG A   1      19.717  22.442  12.469  1.00 20.00    +0.030 C 
ATOM     28 C28  LIG A   1      20.771  21.794  11.952  1.00 20.00    +0.138 C 
ATOM     29 C29  LIG A   1      20.614  20.506  11.251  1.00 20.00    +0.017 A 
ATOM     30 C30  LIG A   1      21.505  19.457  11.490  1.00 20.00    -0.049 A 
ATOM     31 C31  LIG A   1      21.366  18.235  10.817  1.00 20.00    -0.038 A 
ATOM     32 C32  LIG A   1      20.329  18.014   9.901  1.00 20.00    +0.034 A 
ATOM     33 N33  LIG A   1      20.294  16.801   9.214  1.00 20.00    -0.385 NA
ATOM     34 C34  LIG A   1      19.122  16.379   8.450  1.00 20.00    +0.016 C 
ATOM     35 C35  LIG A   1      19.278  16.783   6.983  1.00 20.00    -0.023 C 
ATOM     36 C36  LIG A   1      18.002  16.556   6.170  1.00 20.00    -0.003 C 
ATOM     37 N37  LIG A   1      17.638  15.141   6.133  1.00 20.00    -0.317 NA
ATOM     38 C38  LIG A   1      16.327  14.901   5.526  1.00 20.00    -0.005 C 
ATOM     39 C39  LIG A   1      16.314  15.092   4.005  1.00 20.00    -0.039 C 
ATOM     40 C40  LIG A   1      14.936  14.838   3.381  1.00 20.00    -0.040 C 
ATOM     41 C41  LIG A   1      14.498  13.375   3.452  1.00 20.00    -0.008 C 
ATOM     42 N42  LIG A   1      13.210  13.187   2.794  1.00 20.00    -0.330 NA
ATOM     43 C43  LIG A   1      19.474  19.085   9.633  1.00 20.00    -0.038 A 
ATOM     44 C44  LIG A   1      19.602  20.309  10.305  1.00 20.00    -0.049 A 
ATOM     45 O45  LIG A   1      22.079  22.242  12.032  1.00 20.00    -0.456 OA
ATOM     46 C46  LIG A   1      22.320  23.447  12.643  1.00 20.00    +0.140 A 
ATOM     47 C47  LIG A   1      23.643  23.888  12.689  1.00 20.00    +0.005 A 
ATOM     48 H48  LIG A   1      22.743  24.858  12.428  1.00 20.00    +0.024 H 
ATOM     49 H49  LIG A   1      23.179  24.072  10.906  1.00 20.00    +0.024 H 
ATOM     50 H50  LIG A   1      21.549  23.861  11.589  1.00 20.00    +0.024 H 
ATOM     51 H51  LIG A   1      24.171  22.887  12.861  1.00 20.00    +0.038 H 
ATOM     52 H52  LIG A   1      22.582  22.657  13.580  1.00 20.00    +0.038 H 
ATOM     53 H53  LIG A   1      21.556  19.087  10.659  1.00 20.00    +0.055 H 
ATOM     54 H54  LIG A   1      20.521  18.388  12.643  1.00 20.00    +0.119 HD
ATOM     55 H55  LIG A   1      19.253  19.378  12.450  1.00 20.00    +0.119 HD
ATOM     56 H56  LIG A   1      18.895  20.571  10.295  1.00 20.00    +0.029 H 
ATOM     57 H57  LIG A   1      20.345  21.124   9.495  1.00 20.00    +0.029 H 
ATOM     58 H58  LIG A   1      18.991  19.766   8.011  1.00 20.00    +0.029 H 
ATOM     59 H59  LIG A   1      20.581  19.066   8.240  1.00 20.00    +0.029 H 
ATOM     60 H60  LIG A   1      18.109  18.117   9.783  1.00 20.00    +0.049 H 
ATOM     61 H61  LIG A   1      19.668  17.294   9.703  1.00 20.00    +0.049 H 
ATOM     62 H62  LIG A   1      17.751  17.700   7.484  1.00 20.00    +0.163 HD
ATOM     63 H63  LIG A   1      21.005  15.942   6.487  1.00 20.00    +0.191 HD
ATOM     64 H64  LIG A   1      19.192  15.376   5.540  1.00 20.00    +0.159 HD
ATOM     65 H65  LIG A   1      17.768  15.707   6.330  1.00 20.00    +0.159 HD
ATOM     66 H66  LIG A   1      25.509  21.655  15.147  1.00 20.00    +0.189 HD
ATOM     67 H67  LIG A   1      24.154  22.782  16.381  1.00 20.00    +0.157 HD
ATOM     68 H68  LIG A   1      24.502  24.377  16.768  1.00 20.00    +0.157 HD
ATOM     69 H69  LIG A   1      27.509  24.478  14.629  1.00 20.00    +0.037 H 
ATOM     70 H70  LIG A   1      27.095  25.058  16.246  1.00 20.00    +0.037 H 
ATOM     71 H71  LIG A   1      25.077  26.194  15.382  1.00 20.00    +0.049 H 
ATOM     72 H72  LIG A   1      26.517  26.725  14.541  1.00 20.00    +0.049 H 
ATOM     73 H73  LIG A   1      25.923  24.857  12.878  1.00 20.00    +0.160 HD
ATOM     74 H74  LIG A   1      23.158  26.845  14.297  1.00 20.00    +0.064 H 
ATOM     75 H75  LIG A   1      20.823  26.056  14.236  1.00 20.00    +0.063 H 
ATOM     76 H76  LIG A   1      18.699  22.077  12.424  1.00 20.00    +0.070 H 
ATOM     77 H77  LIG A   1      22.319  19.574  12.200  1.00 20.00    +0.063 H 
ATOM     78 H78  LIG A   1      22.091  17.448  11.015  1.00 20.00    +0.064 H 
ATOM     79 H79  LIG A   1      20.731  16.040   9.729  1.00 20.00    +0.160 HD
ATOM     80 H80  LIG A   1      19.055  15.287   8.516  1.00 20.00    +0.049 H 
ATOM     81 H81  LIG A   1      18.195  16.767   8.885  1.00 20.00    +0.049 H 
ATOM     82 H82  LIG A   1      20.116  16.233   6.533  1.00 20.00    +0.030 H 
ATOM     83 H83  LIG A   1      19.543  17.847   6.911  1.00 20.00    +0.030 H 
ATOM     84 H84  LIG A   1      18.174  16.929   5.155  1.00 20.00    +0.043 H 
ATOM     85 H85  LIG A   1      17.192  17.150   6.608  1.00 20.00    +0.043 H 
ATOM     86 H86  LIG A   1      18.354  14.619   5.624  1.00 20.00    +0.122 HD
ATOM     87 H87  LIG A   1      16.055  13.868   5.764  1.00 20.00    +0.043 H 
ATOM     88 H88  LIG A   1      15.568  15.535   6.000  1.00 20.00    +0.043 H 
ATOM     89 H89  LIG A   1      16.599  16.122   3.760  1.00 20.00    +0.028 H 
ATOM     90 H90  LIG A   1      17.057  14.437   3.534  1.00 20.00    +0.028 H 
ATOM     91 H91  LIG A   1      14.980  15.148   2.329  1.00 20.00    +0.028 H 
ATOM     92 H92  LIG A   1      14.192  15.479   3.869  1.00 20.00    +0.028 H 
ATOM     93 H93  LIG A   1      14.404  13.043   4.491  1.00 20.00    +0.043 H 
ATOM     94 H94  LIG A   1      15.241  12.732   2.968  1.00 20.00    +0.043 H 
ATOM     95 H95  LIG A   1      12.502  13.767   3.247  1.00 20.00    +0.118 HD
ATOM     96 H96  LIG A   1      13.262  13.513   1.830  1.00 20.00    +0.118 HD
ATOM     97 H97  LIG A   1      18.687  18.999   8.890  1.00 20.00    +0.064 H 
ATOM     98 H98  LIG A   1      18.908  21.110  10.057  1.00 20.00    +0.063 H 
ATOM     99 H99  LIG A   1      24.422  23.268  12.251  1.00 20.00    +0.068 H 
ENDROOT
TORSDOF 0
                                                                                                      
ENDMDL
MODEL 2
REMARK VINA RESULT:   -11.170      3.436      5.167
REMARK INTER + INTRA:         -11.170
REMARK INTER:                 -11.170
REMARK INTRA:                   0.000
REMARK UNBOUND:                 0.000
ROOT
ATOM      1 C1   LIG A   1      20.134  28.529  13.723  1.00 20.00    -0.056 C 
ATOM      2 C2   LIG A   1      21.225  27.780  14.468  1.00 20.00    -0.002 C 
ATOM      3 S3   LIG A   1      21.868  26.402  13.476  1.00 20.00    -0.087 SA
ATOM      4 C4   LIG A   1      20.627  25.187  13.775  1.00 20.00    +0.205 C 
ATOM      5 O5   LIG A   1      19.738  25.348  14.608  1.00 20.00    -0.285 OA
ATOM      6 C6   LIG A   1      20.761  23.902  12.936  1.00 20.00    +0.074 C 
ATOM      7 N7   LIG A   1      20.580  22.726  13.821  1.00 20.00    -0.321 NA
ATOM      8 C8   LIG A   1      19.692  23.912  11.833  1.00 20.00    -0.028 C 
ATOM      9 C9   LIG A   1      19.955  22.956  10.663  1.00 20.00    -0.034 C 
ATOM     10 C10  LIG A   1      20.123  21.488  11.055  1.00 20.00    +0.018 C 
ATOM     11 N11  LIG A   1      20.046  20.626   9.881  1.00 20.00    -0.357 NA
ATOM     12 C12  LIG A   1      21.059  20.531   8.989  1.00 20.00    +0.185 C 
ATOM     13 N13  LIG A   1      22.207  21.088   9.102  1.00 20.00    -0.270 NA
ATOM     14 N14  LIG A   1      20.716  19.741   7.951  1.00 20.00    -0.370 NA
ATOM     15 N15  LIG A   1      24.030  29.106  16.559  1.00 20.00    -0.289 NA
ATOM     16 C16  LIG A   1      23.288  29.867  17.292  1.00 20.00    +0.092 C 
ATOM     17 N17  LIG A   1      22.507  29.354  18.285  1.00 20.00    -0.388 NA
ATOM     18 C18  LIG A   1      23.304  31.360  17.029  1.00 20.00    +0.022 C 
ATOM     19 C19  LIG A   1      21.983  31.887  16.476  1.00 20.00    +0.022 C 
ATOM     20 N20  LIG A   1      21.652  31.300  15.171  1.00 20.00    -0.384 NA
ATOM     21 C21  LIG A   1      20.740  30.234  15.171  1.00 20.00    +0.038 A 
ATOM     22 C22  LIG A   1      19.476  30.348  15.767  1.00 20.00    -0.038 A 
ATOM     23 C23  LIG A   1      18.581  29.276  15.766  1.00 20.00    -0.045 A 
ATOM     24 C24  LIG A   1      18.946  28.078  15.150  1.00 20.00    +0.065 A 
ATOM     25 C25  LIG A   1      18.033  26.927  15.141  1.00 20.00    +0.193 C 
ATOM     26 O26  LIG A   1      16.939  26.954  15.688  1.00 20.00    -0.289 OA
ATOM     27 C27  LIG A   1      18.505  25.722  14.439  1.00 20.00    +0.030 C 
ATOM     28 C28  LIG A   1      19.718  25.729  13.869  1.00 20.00    +0.138 C 
ATOM     29 C29  LIG A   1      20.237  24.551  13.149  1.00 20.00    +0.017 A 
ATOM     30 C30  LIG A   1      21.558  24.134  13.333  1.00 20.00    -0.049 A 
ATOM     31 C31  LIG A   1      22.058  23.022  12.643  1.00 20.00    -0.038 A 
ATOM     32 C32  LIG A   1      21.257  22.281  11.764  1.00 20.00    +0.034 A 
ATOM     33 N33  LIG A   1      21.841  21.231  11.056  1.00 20.00    -0.385 NA
ATOM     34 C34  LIG A   1      21.039  20.248  10.330  1.00 20.00    +0.016 C 
ATOM     35 C35  LIG A   1      20.893  20.668   8.866  1.00 20.00    -0.023 C 
ATOM     36 C36  LIG A   1      19.897  19.795   8.100  1.00 20.00    -0.003 C 
ATOM     37 N37  LIG A   1      20.337  18.402   8.049  1.00 20.00    -0.317 NA
ATOM     38 C38  LIG A   1      19.327  17.501   7.489  1.00 20.00    -0.005 C 
ATOM     39 C39  LIG A   1      19.149  17.649   5.973  1.00 20.00    -0.039 C 
ATOM     40 C40  LIG A   1      18.089  16.701   5.399  1.00 20.00    -0.040 C 
ATOM     41 C41  LIG A   1      18.496  15.228   5.459  1.00 20.00    -0.008 C 
ATOM     42 N42  LIG A   1      17.476  14.383   4.848  1.00 20.00    -0.330 NA
ATOM     43 C43  LIG A   1      19.954  22.735  11.550  1.00 20.00    -0.038 A 
ATOM     44 C44  LIG A   1      19.443  23.843  12.240  1.00 20.00    -0.049 A 
ATOM     45 O45  LIG A   1      20.593  26.803  13.906  1.00 20.00    -0.456 OA
ATOM     46 C46  LIG A   1      20.184  27.955  14.531  1.00 20.00    +0.140 A 
ATOM     47 C47  LIG A   1      21.073  29.030  14.534  1.00 20.00    +0.005 A 
ATOM     48 H48  LIG A   1      19.786  29.375  14.327  1.00 20.00    +0.024 H 
ATOM     49 H49  LIG A   1      20.506  28.933  12.774  1.00 20.00    +0.024 H 
ATOM     50 H50  LIG A   1      19.267  27.893  13.516  1.00 20.00    +0.024 H 
ATOM     51 H51  LIG A   1      22.058  28.462  14.666  1.00 20.00    +0.038 H 
ATOM     52 H52  LIG A   1      20.865  27.428  15.441  1.00 20.00    +0.038 H 
ATOM     53 H53  LIG A   1      21.761  23.844  12.494  1.00 20.00    +0.055 H 
ATOM     54 H54  LIG A   1      21.341  22.711  14.503  1.00 20.00    +0.119 HD
ATOM     55 H55  LIG A   1      19.733  22.878  14.379  1.00 20.00    +0.119 HD
ATOM     56 H56  LIG A   1      18.705  23.691  12.263  1.00 20.00    +0.029 H 
ATOM     57 H57  LIG A   1      19.606  24.925  11.417  1.00 20.00    +0.029 H 
ATOM     58 H58  LIG A   1      19.114  23.049   9.962  1.00 20.00    +0.029 H 
ATOM     59 H59  LIG A   1      20.842  23.299  10.115  1.00 20.00    +0.029 H 
ATOM     60 H60  LIG A   1      19.317  21.191  11.735  1.00 20.00    +0.049 H 
ATOM     61 H61  LIG A   1      21.071  21.319  11.578  1.00 20.00    +0.049 H 
ATOM     62 H62  LIG A   1      19.135  20.637   9.443  1.00 20.00    +0.163 HD
ATOM     63 H63  LIG A   1      22.780  20.868   8.287  1.00 20.00    +0.191 HD
ATOM     64 H64  LIG A   1      21.503  19.422   7.401  1.00 20.00    +0.159 HD
ATOM     65 H65  LIG A   1      20.155  18.952   8.251  1.00 20.00    +0.159 HD
ATOM     66 H66  LIG A   1      23.943  28.137  16.873  1.00 20.00    +0.189 HD
ATOM     67 H67  LIG A   1      22.252  28.379  18.181  1.00 20.00    +0.157 HD
ATOM     68 H68  LIG A   1      21.719  29.918  18.584  1.00 20.00    +0.157 HD
ATOM     69 H69  LIG A   1      24.120  31.588  16.332  1.00 20.00    +0.037 H 
ATOM     70 H70  LIG A   1      23.532  31.867  17.975  1.00 20.00    +0.037 H 
ATOM     71 H71  LIG A   1      21.183  31.757  17.212  1.00 20.00    +0.049 H 
ATOM     72 H72  LIG A   1      22.086  32.968  16.326  1.00 20.00    +0.049 H 
ATOM     73 H73  LIG A   1      22.500  31.061  14.652  1.00 20.00    +0.160 HD
ATOM     74 H74  LIG A   1      19.166  31.288  16.216  1.00 20.00    +0.064 H 
ATOM     75 H75  LIG A   1      17.604  29.381  16.231  1.00 20.00    +0.063 H 
ATOM     76 H76  LIG A   1      17.834  24.873  14.427  1.00 20.00    +0.070 H 
ATOM     77 H77  LIG A   1      22.216  24.668  14.014  1.00 20.00    +0.063 H 
ATOM     78 H78  LIG A   1      23.098  22.740  12.797  1.00 20.00    +0.064 H 
ATOM     79 H79  LIG A   1      22.636  20.819  11.539  1.00 20.00    +0.160 HD
ATOM     80 H80  LIG A   1      21.563  19.287  10.377  1.00 20.00    +0.049 H 
ATOM     81 H81  LIG A   1      20.066  20.088  10.808  1.00 20.00    +0.049 H 
ATOM     82 H82  LIG A   1      21.874  20.643   8.373  1.00 20.00    +0.030 H 
ATOM     83 H83  LIG A   1      20.550  21.709   8.805  1.00 20.00    +0.030 H 
ATOM     84 H84  LIG A   1      19.801  20.198   7.085  1.00 20.00    +0.043 H 
ATOM     85 H85  LIG A   1      18.915  19.872   8.580  1.00 20.00    +0.043 H 
ATOM     86 H86  LIG A   1      21.197  18.337   7.502  1.00 20.00    +0.122 HD
ATOM     87 H87  LIG A   1      19.654  16.482   7.717  1.00 20.00    +0.043 H 
ATOM     88 H88  LIG A   1      18.369  17.638   8.004  1.00 20.00    +0.043 H 
ATOM     89 H89  LIG A   1      18.834  18.673   5.738  1.00 20.00    +0.028 H 
ATOM     90 H90  LIG A   1      20.105  17.486   5.462  1.00 20.00    +0.028 H 
ATOM     91 H91  LIG A   1      17.917  16.982   4.352  1.00 20.00    +0.028 H 
ATOM     92 H92  LIG A   1      17.141  16.853   5.928  1.00 20.00    +0.028 H 
ATOM     93 H93  LIG A   1      18.638  14.902   6.495  1.00 20.00    +0.043 H 
ATOM     94 H94  LIG A   1      19.445  15.075   4.934  1.00 20.00    +0.043 H 
ATOM     95 H95  LIG A   1      16.589  14.502   5.339  1.00 20.00    +0.118 HD
ATOM     96 H96  LIG A   1      17.306  14.684   3.889  1.00 20.00    +0.118 HD
ATOM     97 H97  LIG A   1      19.301  22.242  10.837  1.00 20.00    +0.064 H 
ATOM     98 H98  LIG A   1      18.421  24.154  12.035  1.00 20.00    +0.063 H 
ATOM     99 H99  LIG A   1      22.043  28.916  14.053  1.00 20.00    +0.068 H 
ENDROOT
TORSDOF 0
                                                                                                      
ENDMDL
MODEL 3
REMARK VINA RESULT:   -11.126      3.163     11.309
REMARK INTER + INTRA:         -11.126
REMARK INTER:                 -11.126
REMARK INTRA:                   0.000
REMARK UNBOUND:                 0.000
ROOT
ATOM      1 C1   LIG A   1      19.784  19.073   6.246  1.00 20.00    -0.056 C 
ATOM      2 C2   LIG A   1      19.606  18.122   7.418  1.00 20.00    -0.002 C 
ATOM      3 S3   LIG A   1      19.224  19.028   8.944  1.00 20.00    -0.087 SA
ATOM      4 C4   LIG A   1      20.841  19.545   9.421  1.00 20.00    +0.205 C 
ATOM      5 O5   LIG A   1      21.852  19.145   8.849  1.00 20.00    -0.285 OA
ATOM      6 C6   LIG A   1      20.887  20.508  10.622  1.00 20.00    +0.074 C 
ATOM      7 N7   LIG A   1      21.939  20.057  11.564  1.00 20.00    -0.321 NA
ATOM      8 C8   LIG A   1      21.193  21.925  10.115  1.00 20.00    -0.028 C 
ATOM      9 C9   LIG A   1      20.844  23.055  11.090  1.00 20.00    -0.034 C 
ATOM     10 C10  LIG A   1      21.519  22.958  12.459  1.00 20.00    +0.018 C 
ATOM     11 N11  LIG A   1      21.392  24.213  13.191  1.00 20.00    -0.357 NA
ATOM     12 C12  LIG A   1      20.228  24.599  13.763  1.00 20.00    +0.185 C 
ATOM     13 N13  LIG A   1      19.156  23.900  13.818  1.00 20.00    -0.270 NA
ATOM     14 N14  LIG A   1      20.340  25.830  14.303  1.00 20.00    -0.370 NA
ATOM     15 N15  LIG A   1      17.853  14.820   7.566  1.00 20.00    -0.289 NA
ATOM     16 C16  LIG A   1      18.450  14.317   6.538  1.00 20.00    +0.092 C 
ATOM     17 N17  LIG A   1      19.739  13.877   6.610  1.00 20.00    -0.388 NA
ATOM     18 C18  LIG A   1      17.682  14.219   5.235  1.00 20.00    +0.022 C 
ATOM     19 C19  LIG A   1      18.223  15.144   4.148  1.00 20.00    +0.022 C 
ATOM     20 N20  LIG A   1      18.115  16.561   4.518  1.00 20.00    -0.384 NA
ATOM     21 C21  LIG A   1      19.273  17.172   5.022  1.00 20.00    +0.038 A 
ATOM     22 C22  LIG A   1      20.484  17.148   4.316  1.00 20.00    -0.038 A 
ATOM     23 C23  LIG A   1      21.631  17.754   4.834  1.00 20.00    -0.045 A 
ATOM     24 C24  LIG A   1      21.566  18.406   6.067  1.00 20.00    +0.065 A 
ATOM     25 C25  LIG A   1      22.756  19.044   6.646  1.00 20.00    +0.193 C 
ATOM     26 O26  LIG A   1      23.849  19.010   6.097  1.00 20.00    -0.289 OA
ATOM     27 C27  LIG A   1      22.570  19.727   7.936  1.00 20.00    +0.030 C 
ATOM     28 C28  LIG A   1      21.359  19.724   8.511  1.00 20.00    +0.138 C 
ATOM     29 C29  LIG A   1      21.118  20.398   9.800  1.00 20.00    +0.017 A 
ATOM     30 C30  LIG A   1      20.357  19.775  10.793  1.00 20.00    -0.049 A 
ATOM     31 C31  LIG A   1      20.116  20.418  12.015  1.00 20.00    -0.038 A 
ATOM     32 C32  LIG A   1      20.637  21.687  12.294  1.00 20.00    +0.034 A 
ATOM     33 N33  LIG A   1      20.297  22.297  13.501  1.00 20.00    -0.385 NA
ATOM     34 C34  LIG A   1      20.993  23.485  13.990  1.00 20.00    +0.016 C 
ATOM     35 C35  LIG A   1      20.241  24.747  13.564  1.00 20.00    -0.023 C 
ATOM     36 C36  LIG A   1      21.022  26.028  13.865  1.00 20.00    -0.003 C 
ATOM     37 N37  LIG A   1      21.247  26.191  15.301  1.00 20.00    -0.317 NA
ATOM     38 C38  LIG A   1      22.148  27.301  15.618  1.00 20.00    -0.005 C 
ATOM     39 C39  LIG A   1      21.512  28.682  15.416  1.00 20.00    -0.039 C 
ATOM     40 C40  LIG A   1      22.464  29.836  15.751  1.00 20.00    -0.040 C 
ATOM     41 C41  LIG A   1      22.800  29.932  17.240  1.00 20.00    -0.008 C 
ATOM     42 N42  LIG A   1      23.661  31.080  17.504  1.00 20.00    -0.330 NA
ATOM     43 C43  LIG A   1      21.355  22.321  11.277  1.00 20.00    -0.038 A 
ATOM     44 C44  LIG A   1      21.606  21.685  10.053  1.00 20.00    -0.049 A 
ATOM     45 O45  LIG A   1      20.245  19.093   7.982  1.00 20.00    -0.456 OA
ATOM     46 C46  LIG A   1      20.367  18.463   6.769  1.00 20.00    +0.140 A 
ATOM     47 C47  LIG A   1      19.225  17.857   6.245  1.00 20.00    +0.005 A 
ATOM     48 H48  LIG A   1      19.979  18.501   5.332  1.00 20.00    +0.024 H 
ATOM     49 H49  LIG A   1      18.880  19.668   6.076  1.00 20.00    +0.024 H 
ATOM     50 H50  LIG A   1      20.628  19.754   6.395  1.00 20.00    +0.024 H 
ATOM     51 H51  LIG A   1      18.764  17.453   7.212  1.00 20.00    +0.038 H 
ATOM     52 H52  LIG A   1      20.490  17.490   7.548  1.00 20.00    +0.038 H 
ATOM     53 H53  LIG A   1      19.928  20.494  11.152  1.00 20.00    +0.055 H 
ATOM     54 H54  LIG A   1      21.677  19.141  11.932  1.00 20.00    +0.119 HD
ATOM     55 H55  LIG A   1      22.793  19.884  11.022  1.00 20.00    +0.119 HD
ATOM     56 H56  LIG A   1      22.253  22.005   9.836  1.00 20.00    +0.029 H 
ATOM     57 H57  LIG A   1      20.635  22.109   9.186  1.00 20.00    +0.029 H 
ATOM     58 H58  LIG A   1      21.127  24.005  10.615  1.00 20.00    +0.029 H 
ATOM     59 H59  LIG A   1      19.754  23.095  11.214  1.00 20.00    +0.029 H 
ATOM     60 H60  LIG A   1      22.588  22.758  12.331  1.00 20.00    +0.049 H 
ATOM     61 H61  LIG A   1      21.101  22.138  13.053  1.00 20.00    +0.049 H 
ATOM     62 H62  LIG A   1      21.887  24.977  12.751  1.00 20.00    +0.163 HD
ATOM     63 H63  LIG A   1      18.423  24.428  14.290  1.00 20.00    +0.191 HD
ATOM     64 H64  LIG A   1      19.608  26.056  14.963  1.00 20.00    +0.159 HD
ATOM     65 H65  LIG A   1      21.250  25.969  14.729  1.00 20.00    +0.159 HD
ATOM     66 H66  LIG A   1      18.477  14.789   8.376  1.00 20.00    +0.189 HD
ATOM     67 H67  LIG A   1      20.299  14.287   7.348  1.00 20.00    +0.157 HD
ATOM     68 H68  LIG A   1      20.251  13.819   5.736  1.00 20.00    +0.157 HD
ATOM     69 H69  LIG A   1      16.626  14.445   5.427  1.00 20.00    +0.037 H 
ATOM     70 H70  LIG A   1      17.736  13.180   4.888  1.00 20.00    +0.037 H 
ATOM     71 H71  LIG A   1      19.244  14.855   3.876  1.00 20.00    +0.049 H 
ATOM     72 H72  LIG A   1      17.616  14.999   3.247  1.00 20.00    +0.049 H 
ATOM     73 H73  LIG A   1      17.316  16.717   5.136  1.00 20.00    +0.160 HD
ATOM     74 H74  LIG A   1      20.538  16.677   3.338  1.00 20.00    +0.064 H 
ATOM     75 H75  LIG A   1      22.562  17.728   4.273  1.00 20.00    +0.063 H 
ATOM     76 H76  LIG A   1      23.444  20.202   8.364  1.00 20.00    +0.070 H 
ATOM     77 H77  LIG A   1      19.941  18.785  10.630  1.00 20.00    +0.063 H 
ATOM     78 H78  LIG A   1      19.502  19.909  12.756  1.00 20.00    +0.064 H 
ATOM     79 H79  LIG A   1      20.082  21.629  14.237  1.00 20.00    +0.160 HD
ATOM     80 H80  LIG A   1      21.016  23.433  15.085  1.00 20.00    +0.049 H 
ATOM     81 H81  LIG A   1      22.039  23.503  13.665  1.00 20.00    +0.049 H 
ATOM     82 H82  LIG A   1      19.260  24.779  14.057  1.00 20.00    +0.030 H 
ATOM     83 H83  LIG A   1      20.037  24.719  12.486  1.00 20.00    +0.030 H 
ATOM     84 H84  LIG A   1      20.450  26.876  13.474  1.00 20.00    +0.043 H 
ATOM     85 H85  LIG A   1      21.976  25.996  13.327  1.00 20.00    +0.043 H 
ATOM     86 H86  LIG A   1      20.351  26.330  15.771  1.00 20.00    +0.122 HD
ATOM     87 H87  LIG A   1      22.433  27.184  16.668  1.00 20.00    +0.043 H 
ATOM     88 H88  LIG A   1      23.074  27.216  15.037  1.00 20.00    +0.043 H 
ATOM     89 H89  LIG A   1      21.212  28.799  14.367  1.00 20.00    +0.028 H 
ATOM     90 H90  LIG A   1      20.600  28.770  16.018  1.00 20.00    +0.028 H 
ATOM     91 H91  LIG A   1      21.987  30.771  15.430  1.00 20.00    +0.028 H 
ATOM     92 H92  LIG A   1      23.383  29.731  15.162  1.00 20.00    +0.028 H 
ATOM     93 H93  LIG A   1      23.315  29.030  17.585  1.00 20.00    +0.043 H 
ATOM     94 H94  LIG A   1      21.883  30.033  17.830  1.00 20.00    +0.043 H 
ATOM     95 H95  LIG A   1      24.529  30.990  16.973  1.00 20.00    +0.118 HD
ATOM     96 H96  LIG A   1      23.215  31.932  17.167  1.00 20.00    +0.118 HD
ATOM     97 H97  LIG A   1      21.734  23.329  11.406  1.00 20.00    +0.064 H 
ATOM     98 H98  LIG A   1      22.170  22.224   9.296  1.00 20.00    +0.063 H 
ATOM     99 H99  LIG A   1      18.296  17.901   6.810  1.00 20.00    +0.068 H 
ENDROOT
TORSDOF 0
                                                                                                      
ENDMDL
MODEL 4
REMARK VINA RESULT:   -10.813      3.415     11.121
REMARK INTER + INTRA:         -10.813
REMARK INTER:                 -10.813
REMARK INTRA:                   0.000
REMARK UNBOUND:                 0.000
ROOT
ATOM      1 C1   LIG A   1      21.189  15.403   8.799  1.00 20.00    -0.056 C 
ATOM      2 C2   LIG A   1      20.632  16.221   7.645  1.00 20.00    -0.002 C 
ATOM      3 S3   LIG A   1      20.997  17.986   7.858  1.00 20.00    -0.087 SA
ATOM      4 C4   LIG A   1      19.723  18.442   8.988  1.00 20.00    +0.205 C 
ATOM      5 O5   LIG A   1      18.812  17.676   9.292  1.00 20.00    -0.285 OA
ATOM      6 C6   LIG A   1      19.824  19.878   9.537  1.00 20.00    +0.074 C 
ATOM      7 N7   LIG A   1      18.488  20.517   9.469  1.00 20.00    -0.321 NA
ATOM      8 C8   LIG A   1      20.319  19.823  10.990  1.00 20.00    -0.028 C 
ATOM      9 C9   LIG A   1      20.890  21.138  11.533  1.00 20.00    -0.034 C 
ATOM     10 C10  LIG A   1      19.934  22.330  11.472  1.00 20.00    +0.018 C 
ATOM     11 N11  LIG A   1      20.429  23.434  12.287  1.00 20.00    -0.357 NA
ATOM     12 C12  LIG A   1      21.465  24.211  11.895  1.00 20.00    +0.185 C 
ATOM     13 N13  LIG A   1      22.060  24.144  10.763  1.00 20.00    -0.270 NA
ATOM     14 N14  LIG A   1      21.789  25.103  12.853  1.00 20.00    -0.370 NA
ATOM     15 N15  LIG A   1      20.623  15.476   3.979  1.00 20.00    -0.289 NA
ATOM     16 C16  LIG A   1      20.132  14.288   4.096  1.00 20.00    +0.092 C 
ATOM     17 N17  LIG A   1      18.809  14.087   4.356  1.00 20.00    -0.388 NA
ATOM     18 C18  LIG A   1      21.065  13.104   3.931  1.00 20.00    +0.022 C 
ATOM     19 C19  LIG A   1      21.278  12.322   5.225  1.00 20.00    +0.022 C 
ATOM     20 N20  LIG A   1      21.917  13.135   6.268  1.00 20.00    -0.384 NA
ATOM     21 C21  LIG A   1      21.073  13.692   7.240  1.00 20.00    +0.038 A 
ATOM     22 C22  LIG A   1      20.191  12.900   7.989  1.00 20.00    -0.038 A 
ATOM     23 C23  LIG A   1      19.350  13.469   8.949  1.00 20.00    -0.045 A 
ATOM     24 C24  LIG A   1      19.400  14.845   9.175  1.00 20.00    +0.065 A 
ATOM     25 C25  LIG A   1      18.522  15.478  10.168  1.00 20.00    +0.193 C 
ATOM     26 O26  LIG A   1      17.699  14.843  10.814  1.00 20.00    -0.289 OA
ATOM     27 C27  LIG A   1      18.676  16.930  10.348  1.00 20.00    +0.030 C 
ATOM     28 C28  LIG A   1      19.577  17.591   9.606  1.00 20.00    +0.138 C 
ATOM     29 C29  LIG A   1      19.775  19.045   9.750  1.00 20.00    +0.017 A 
ATOM     30 C30  LIG A   1      19.909  19.856   8.621  1.00 20.00    -0.049 A 
ATOM     31 C31  LIG A   1      20.109  21.237   8.754  1.00 20.00    -0.038 A 
ATOM     32 C32  LIG A   1      20.163  21.855  10.010  1.00 20.00    +0.034 A 
ATOM     33 N33  LIG A   1      20.437  23.221  10.069  1.00 20.00    -0.385 NA
ATOM     34 C34  LIG A   1      20.252  23.994  11.296  1.00 20.00    +0.016 C 
ATOM     35 C35  LIG A   1      21.568  24.070  12.071  1.00 20.00    -0.023 C 
ATOM     36 C36  LIG A   1      21.398  24.686  13.461  1.00 20.00    -0.003 C 
ATOM     37 N37  LIG A   1      20.930  26.069  13.378  1.00 20.00    -0.317 NA
ATOM     38 C38  LIG A   1      20.576  26.634  14.682  1.00 20.00    -0.005 C 
ATOM     39 C39  LIG A   1      21.792  26.948  15.562  1.00 20.00    -0.039 C 
ATOM     40 C40  LIG A   1      21.409  27.540  16.924  1.00 20.00    -0.040 C 
ATOM     41 C41  LIG A   1      20.802  28.941  16.828  1.00 20.00    -0.008 C 
ATOM     42 N42  LIG A   1      20.512  29.472  18.155  1.00 20.00    -0.330 NA
ATOM     43 C43  LIG A   1      20.076  21.029  11.132  1.00 20.00    -0.038 A 
ATOM     44 C44  LIG A   1      19.871  19.647  11.010  1.00 20.00    -0.049 A 
ATOM     45 O45  LIG A   1      20.381  17.000   8.646  1.00 20.00    -0.456 OA
ATOM     46 C46  LIG A   1      20.287  15.643   8.461  1.00 20.00    +0.140 A 
ATOM     47 C47  LIG A   1      21.124  15.068   7.505  1.00 20.00    +0.005 A 
ATOM     48 H48  LIG A   1      20.986  14.339   8.631  1.00 20.00    +0.024 H 
ATOM     49 H49  LIG A   1      22.275  15.522   8.882  1.00 20.00    +0.024 H 
ATOM     50 H50  LIG A   1      20.732  15.679   9.755  1.00 20.00    +0.024 H 
ATOM     51 H51  LIG A   1      21.106  15.895   6.713  1.00 20.00    +0.038 H 
ATOM     52 H52  LIG A   1      19.556  16.054   7.530  1.00 20.00    +0.038 H 
ATOM     53 H53  LIG A   1      20.514  20.466   8.923  1.00 20.00    +0.055 H 
ATOM     54 H54  LIG A   1      18.214  20.596   8.488  1.00 20.00    +0.119 HD
ATOM     55 H55  LIG A   1      17.807  19.867   9.877  1.00 20.00    +0.119 HD
ATOM     56 H56  LIG A   1      19.510  19.482  11.651  1.00 20.00    +0.029 H 
ATOM     57 H57  LIG A   1      21.106  19.061  11.078  1.00 20.00    +0.029 H 
ATOM     58 H58  LIG A   1      21.187  20.966  12.577  1.00 20.00    +0.029 H 
ATOM     59 H59  LIG A   1      21.816  21.375  10.992  1.00 20.00    +0.029 H 
ATOM     60 H60  LIG A   1      18.955  22.040  11.870  1.00 20.00    +0.049 H 
ATOM     61 H61  LIG A   1      19.782  22.668  10.442  1.00 20.00    +0.049 H 
ATOM     62 H62  LIG A   1      20.452  23.215  13.274  1.00 20.00    +0.163 HD
ATOM     63 H63  LIG A   1      22.814  24.831  10.728  1.00 20.00    +0.191 HD
ATOM     64 H64  LIG A   1      22.362  25.869  12.524  1.00 20.00    +0.159 HD
ATOM     65 H65  LIG A   1      20.966  25.459  13.326  1.00 20.00    +0.159 HD
ATOM     66 H66  LIG A   1      19.876  16.168   4.078  1.00 20.00    +0.189 HD
ATOM     67 H67  LIG A   1      18.332  14.859   4.808  1.00 20.00    +0.157 HD
ATOM     68 H68  LIG A   1      18.554  13.196   4.766  1.00 20.00    +0.157 HD
ATOM     69 H69  LIG A   1      22.028  13.462   3.547  1.00 20.00    +0.037 H 
ATOM     70 H70  LIG A   1      20.637  12.440   3.170  1.00 20.00    +0.037 H 
ATOM     71 H71  LIG A   1      20.336  11.873   5.557  1.00 20.00    +0.049 H 
ATOM     72 H72  LIG A   1      21.953  11.487   5.009  1.00 20.00    +0.049 H 
ATOM     73 H73  LIG A   1      22.525  13.846   5.856  1.00 20.00    +0.160 HD
ATOM     74 H74  LIG A   1      20.170  11.822   7.849  1.00 20.00    +0.064 H 
ATOM     75 H75  LIG A   1      18.673  12.841   9.522  1.00 20.00    +0.063 H 
ATOM     76 H76  LIG A   1      18.034  17.400  11.082  1.00 20.00    +0.070 H 
ATOM     77 H77  LIG A   1      19.863  19.427   7.623  1.00 20.00    +0.063 H 
ATOM     78 H78  LIG A   1      20.230  21.833   7.851  1.00 20.00    +0.064 H 
ATOM     79 H79  LIG A   1      20.144  23.722   9.233  1.00 20.00    +0.160 HD
ATOM     80 H80  LIG A   1      19.944  25.006  11.011  1.00 20.00    +0.049 H 
ATOM     81 H81  LIG A   1      19.439  23.590  11.909  1.00 20.00    +0.049 H 
ATOM     82 H82  LIG A   1      22.308  24.640  11.493  1.00 20.00    +0.030 H 
ATOM     83 H83  LIG A   1      21.992  23.064  12.195  1.00 20.00    +0.030 H 
ATOM     84 H84  LIG A   1      22.365  24.646  13.973  1.00 20.00    +0.043 H 
ATOM     85 H85  LIG A   1      20.693  24.076  14.036  1.00 20.00    +0.043 H 
ATOM     86 H86  LIG A   1      21.649  26.645  12.936  1.00 20.00    +0.122 HD
ATOM     87 H87  LIG A   1      20.024  27.558  14.484  1.00 20.00    +0.043 H 
ATOM     88 H88  LIG A   1      19.882  25.969  15.208  1.00 20.00    +0.043 H 
ATOM     89 H89  LIG A   1      22.356  26.028  15.752  1.00 20.00    +0.028 H 
ATOM     90 H90  LIG A   1      22.470  27.634  15.040  1.00 20.00    +0.028 H 
ATOM     91 H91  LIG A   1      22.316  27.584  17.540  1.00 20.00    +0.028 H 
ATOM     92 H92  LIG A   1      20.714  26.861  17.432  1.00 20.00    +0.028 H 
ATOM     93 H93  LIG A   1      19.871  28.927  16.253  1.00 20.00    +0.043 H 
ATOM     94 H94  LIG A   1      21.494  29.619  16.318  1.00 20.00    +0.043 H 
ATOM     95 H95  LIG A   1      19.854  28.858  18.637  1.00 20.00    +0.118 HD
ATOM     96 H96  LIG A   1      21.360  29.471  18.722  1.00 20.00    +0.118 HD
ATOM     97 H97  LIG A   1      20.170  21.436  12.134  1.00 20.00    +0.064 H 
ATOM     98 H98  LIG A   1      19.810  19.051  11.917  1.00 20.00    +0.063 H 
ATOM     99 H99  LIG A   1      21.807  15.707   6.947  1.00 20.00    +0.068 H 
ENDROOT
TORSDOF 0
                                                                                                      
ENDMDL
MODEL 5
REMARK VINA RESULT:   -10.704      4.558     10.841
REMARK INTER + INTRA:         -10.704
REMARK INTER:                 -10.704
REMARK INTRA:                   0.000
REMARK UNBOUND:                 0.000
ROOT
ATOM      1 C1   LIG A   1      21.505  15.675   6.576  1.00 20.00    -0.056 C 
ATOM      2 C2   LIG A   1      22.325  16.683   5.789  1.00 20.00    -0.002 C 
ATOM      3 S3   LIG A   1      22.664  18.166   6.780  1.00 20.00    -0.087 SA
ATOM      4 C4   LIG A   1      21.142  19.034   6.586  1.00 20.00    +0.205 C 
ATOM      5 O5   LIG A   1      20.272  18.665   5.803  1.00 20.00    -0.285 OA
ATOM      6 C6   LIG A   1      21.003  20.302   7.451  1.00 20.00    +0.074 C 
ATOM      7 N7   LIG A   1      20.479  21.405   6.611  1.00 20.00    -0.321 NA
ATOM      8 C8   LIG A   1      20.043  20.010   8.614  1.00 20.00    -0.028 C 
ATOM      9 C9   LIG A   1      20.132  20.987   9.792  1.00 20.00    -0.034 C 
ATOM     10 C10  LIG A   1      19.902  22.455   9.432  1.00 20.00    +0.018 C 
ATOM     11 N11  LIG A   1      19.687  23.256  10.631  1.00 20.00    -0.357 NA
ATOM     12 C12  LIG A   1      20.699  23.592  11.465  1.00 20.00    +0.185 C 
ATOM     13 N13  LIG A   1      21.940  23.343  11.270  1.00 20.00    -0.270 NA
ATOM     14 N14  LIG A   1      20.235  24.258  12.543  1.00 20.00    -0.370 NA
ATOM     15 N15  LIG A   1      25.234  16.129   3.503  1.00 20.00    -0.289 NA
ATOM     16 C16  LIG A   1      24.661  15.215   2.793  1.00 20.00    +0.092 C 
ATOM     17 N17  LIG A   1      23.716  15.527   1.862  1.00 20.00    -0.388 NA
ATOM     18 C18  LIG A   1      25.067  13.771   3.014  1.00 20.00    +0.022 C 
ATOM     19 C19  LIG A   1      23.957  12.923   3.629  1.00 20.00    +0.022 C 
ATOM     20 N20  LIG A   1      23.573  13.392   4.967  1.00 20.00    -0.384 NA
ATOM     21 C21  LIG A   1      22.426  14.194   5.049  1.00 20.00    +0.038 A 
ATOM     22 C22  LIG A   1      21.195  13.774   4.524  1.00 20.00    -0.038 A 
ATOM     23 C23  LIG A   1      20.062  14.586   4.607  1.00 20.00    -0.045 A 
ATOM     24 C24  LIG A   1      20.154  15.830   5.234  1.00 20.00    +0.065 A 
ATOM     25 C25  LIG A   1      18.985  16.715   5.327  1.00 20.00    +0.193 C 
ATOM     26 O26  LIG A   1      17.900  16.420   4.843  1.00 20.00    -0.289 OA
ATOM     27 C27  LIG A   1      19.184  17.991   6.033  1.00 20.00    +0.030 C 
ATOM     28 C28  LIG A   1      20.394  18.282   6.531  1.00 20.00    +0.138 C 
ATOM     29 C29  LIG A   1      20.646  19.544   7.251  1.00 20.00    +0.017 A 
ATOM     30 C30  LIG A   1      21.807  20.282   7.002  1.00 20.00    -0.049 A 
ATOM     31 C31  LIG A   1      22.055  21.476   7.693  1.00 20.00    -0.038 A 
ATOM     32 C32  LIG A   1      21.152  21.981   8.637  1.00 20.00    +0.034 A 
ATOM     33 N33  LIG A   1      21.498  23.135   9.338  1.00 20.00    -0.385 NA
ATOM     34 C34  LIG A   1      20.523  23.876  10.137  1.00 20.00    +0.016 C 
ATOM     35 C35  LIG A   1      20.580  23.416  11.594  1.00 20.00    -0.023 C 
ATOM     36 C36  LIG A   1      19.448  24.001  12.441  1.00 20.00    -0.003 C 
ATOM     37 N37  LIG A   1      19.528  25.460  12.504  1.00 20.00    -0.317 NA
ATOM     38 C38  LIG A   1      18.362  26.071  13.146  1.00 20.00    -0.005 C 
ATOM     39 C39  LIG A   1      18.323  25.865  14.665  1.00 20.00    -0.039 C 
ATOM     40 C40  LIG A   1      17.098  26.510  15.326  1.00 20.00    -0.040 C 
ATOM     41 C41  LIG A   1      17.119  28.038  15.283  1.00 20.00    -0.008 C 
ATOM     42 N42  LIG A   1      15.962  28.592  15.975  1.00 20.00    -0.330 NA
ATOM     43 C43  LIG A   1      20.020  21.212   8.914  1.00 20.00    -0.038 A 
ATOM     44 C44  LIG A   1      19.760  20.019   8.224  1.00 20.00    -0.049 A 
ATOM     45 O45  LIG A   1      21.505  17.463   6.413  1.00 20.00    -0.456 OA
ATOM     46 C46  LIG A   1      21.359  16.253   5.782  1.00 20.00    +0.140 A 
ATOM     47 C47  LIG A   1      22.487  15.436   5.698  1.00 20.00    +0.005 A 
ATOM     48 H48  LIG A   1      21.342  14.776   5.970  1.00 20.00    +0.024 H 
ATOM     49 H49  LIG A   1      22.025  15.366   7.490  1.00 20.00    +0.024 H 
ATOM     50 H50  LIG A   1      20.521  16.070   6.850  1.00 20.00    +0.024 H 
ATOM     51 H51  LIG A   1      23.288  16.234   5.525  1.00 20.00    +0.038 H 
ATOM     52 H52  LIG A   1      21.827  16.945   4.849  1.00 20.00    +0.038 H 
ATOM     53 H53  LIG A   1      21.984  20.603   7.836  1.00 20.00    +0.055 H 
ATOM     54 H54  LIG A   1      21.167  21.618   5.887  1.00 20.00    +0.119 HD
ATOM     55 H55  LIG A   1      19.664  21.052   6.099  1.00 20.00    +0.119 HD
ATOM     56 H56  LIG A   1      19.007  19.981   8.248  1.00 20.00    +0.029 H 
ATOM     57 H57  LIG A   1      20.240  19.003   9.006  1.00 20.00    +0.029 H 
ATOM     58 H58  LIG A   1      19.387  20.678  10.539  1.00 20.00    +0.029 H 
ATOM     59 H59  LIG A   1      21.110  20.871  10.278  1.00 20.00    +0.029 H 
ATOM     60 H60  LIG A   1      19.006  22.548   8.809  1.00 20.00    +0.049 H 
ATOM     61 H61  LIG A   1      20.743  22.863   8.860  1.00 20.00    +0.049 H 
ATOM     62 H62  LIG A   1      18.837  23.011  11.121  1.00 20.00    +0.163 HD
ATOM     63 H63  LIG A   1      22.490  23.690  12.056  1.00 20.00    +0.191 HD
ATOM     64 H64  LIG A   1      20.950  24.758  13.055  1.00 20.00    +0.159 HD
ATOM     65 H65  LIG A   1      19.477  24.884  12.297  1.00 20.00    +0.159 HD
ATOM     66 H66  LIG A   1      24.888  17.050   3.221  1.00 20.00    +0.189 HD
ATOM     67 H67  LIG A   1      23.232  16.406   2.008  1.00 20.00    +0.157 HD
ATOM     68 H68  LIG A   1      23.076  14.787   1.594  1.00 20.00    +0.157 HD
ATOM     69 H69  LIG A   1      25.956  13.747   3.656  1.00 20.00    +0.037 H 
ATOM     70 H70  LIG A   1      25.353  13.349   2.043  1.00 20.00    +0.037 H 
ATOM     71 H71  LIG A   1      23.105  12.856   2.944  1.00 20.00    +0.049 H 
ATOM     72 H72  LIG A   1      24.336  11.900   3.742  1.00 20.00    +0.049 H 
ATOM     73 H73  LIG A   1      24.365  13.830   5.441  1.00 20.00    +0.160 HD
ATOM     74 H74  LIG A   1      21.102  12.791   4.068  1.00 20.00    +0.064 H 
ATOM     75 H75  LIG A   1      19.115  14.245   4.197  1.00 20.00    +0.063 H 
ATOM     76 H76  LIG A   1      18.324  18.644   6.108  1.00 20.00    +0.070 H 
ATOM     77 H77  LIG A   1      22.533  19.939   6.270  1.00 20.00    +0.063 H 
ATOM     78 H78  LIG A   1      22.980  22.011   7.486  1.00 20.00    +0.064 H 
ATOM     79 H79  LIG A   1      22.133  23.740   8.821  1.00 20.00    +0.160 HD
ATOM     80 H80  LIG A   1      20.786  24.939  10.085  1.00 20.00    +0.049 H 
ATOM     81 H81  LIG A   1      19.513  23.793   9.720  1.00 20.00    +0.049 H 
ATOM     82 H82  LIG A   1      21.553  23.680  12.030  1.00 20.00    +0.030 H 
ATOM     83 H83  LIG A   1      20.513  22.321  11.647  1.00 20.00    +0.030 H 
ATOM     84 H84  LIG A   1      19.520  23.575  13.448  1.00 20.00    +0.043 H 
ATOM     85 H85  LIG A   1      18.488  23.686  12.016  1.00 20.00    +0.043 H 
ATOM     86 H86  LIG A   1      20.377  25.732  13.001  1.00 20.00    +0.122 HD
ATOM     87 H87  LIG A   1      18.409  27.142  12.927  1.00 20.00    +0.043 H 
ATOM     88 H88  LIG A   1      17.438  25.704  12.684  1.00 20.00    +0.043 H 
ATOM     89 H89  LIG A   1      18.289  24.792  14.890  1.00 20.00    +0.028 H 
ATOM     90 H90  LIG A   1      19.238  26.257  15.124  1.00 20.00    +0.028 H 
ATOM     91 H91  LIG A   1      17.068  26.181  16.373  1.00 20.00    +0.028 H 
ATOM     92 H92  LIG A   1      16.187  26.130  14.849  1.00 20.00    +0.028 H 
ATOM     93 H93  LIG A   1      17.109  28.401  14.250  1.00 20.00    +0.043 H 
ATOM     94 H94  LIG A   1      18.031  28.418  15.755  1.00 20.00    +0.043 H 
ATOM     95 H95  LIG A   1      15.103  28.260  15.533  1.00 20.00    +0.118 HD
ATOM     96 H96  LIG A   1      15.933  28.247  16.934  1.00 20.00    +0.118 HD
ATOM     97 H97  LIG A   1      19.311  21.516   9.676  1.00 20.00    +0.064 H 
ATOM     98 H98  LIG A   1      18.862  19.459   8.480  1.00 20.00    +0.063 H 
ATOM     99 H99  LIG A   1      23.425  15.784   6.124  1.00 20.00    +0.068 H 
ENDROOT
TORSDOF 0
                                                                                                      
ENDMDL
MODEL 6
REMARK VINA RESULT:   -10.679      4.526     12.678
REMARK INTER + INTRA:         -10.679
REMARK INTER:                 -10.679
REMARK INTRA:                   0.000
REMARK UNBOUND:                 0.000
ROOT
ATOM      1 C1   LIG A   1      17.625  12.407   4.789  1.00 20.00    -0.056 C 
ATOM      2 C2   LIG A   1      18.750  12.907   3.899  1.00 20.00    -0.002 C 
ATOM      3 S3   LIG A   1      19.874  14.000   4.815  1.00 20.00    -0.087 SA
ATOM      4 C4   LIG A   1      18.964  15.509   4.762  1.00 20.00    +0.205 C 
ATOM      5 O5   LIG A   1      17.949  15.640   4.082  1.00 20.00    -0.285 OA
ATOM      6 C6   LIG A   1      19.555  16.653   5.608  1.00 20.00    +0.074 C 
ATOM      7 N7   LIG A   1      19.559  17.898   4.803  1.00 20.00    -0.321 NA
ATOM      8 C8   LIG A   1      18.700  16.834   6.871  1.00 20.00    -0.028 C 
ATOM      9 C9   LIG A   1      19.377  17.602   8.011  1.00 20.00    -0.034 C 
ATOM     10 C10  LIG A   1      19.864  19.005   7.644  1.00 20.00    +0.018 C 
ATOM     11 N11  LIG A   1      20.194  19.770   8.841  1.00 20.00    -0.357 NA
ATOM     12 C12  LIG A   1      21.318  19.539   9.557  1.00 20.00    +0.185 C 
ATOM     13 N13  LIG A   1      22.250  18.719   9.239  1.00 20.00    -0.270 NA
ATOM     14 N14  LIG A   1      21.355  20.311  10.662  1.00 20.00    -0.370 NA
ATOM     15 N15  LIG A   1      20.760  11.070   1.334  1.00 20.00    -0.289 NA
ATOM     16 C16  LIG A   1      19.743  10.578   0.709  1.00 20.00    +0.092 C 
ATOM     17 N17  LIG A   1      18.984  11.343  -0.125  1.00 20.00    -0.388 NA
ATOM     18 C18  LIG A   1      19.407   9.115   0.918  1.00 20.00    +0.022 C 
ATOM     19 C19  LIG A   1      18.093   8.901   1.665  1.00 20.00    +0.022 C 
ATOM     20 N20  LIG A   1      18.128   9.455   3.024  1.00 20.00    -0.384 NA
ATOM     21 C21  LIG A   1      17.538  10.715   3.208  1.00 20.00    +0.038 A 
ATOM     22 C22  LIG A   1      16.214  10.969   2.825  1.00 20.00    -0.038 A 
ATOM     23 C23  LIG A   1      15.642  12.231   3.007  1.00 20.00    -0.045 A 
ATOM     24 C24  LIG A   1      16.396  13.249   3.592  1.00 20.00    +0.065 A 
ATOM     25 C25  LIG A   1      15.830  14.590   3.788  1.00 20.00    +0.193 C 
ATOM     26 O26  LIG A   1      14.697  14.882   3.427  1.00 20.00    -0.289 OA
ATOM     27 C27  LIG A   1      16.701  15.580   4.440  1.00 20.00    +0.030 C 
ATOM     28 C28  LIG A   1      17.942  15.224   4.802  1.00 20.00    +0.138 C 
ATOM     29 C29  LIG A   1      18.853  16.175   5.464  1.00 20.00    +0.017 A 
ATOM     30 C30  LIG A   1      20.194  16.256   5.078  1.00 20.00    -0.049 A 
ATOM     31 C31  LIG A   1      21.067  17.151   5.712  1.00 20.00    -0.038 A 
ATOM     32 C32  LIG A   1      20.630  18.004   6.734  1.00 20.00    +0.034 A 
ATOM     33 N33  LIG A   1      21.568  18.817   7.369  1.00 20.00    -0.385 NA
ATOM     34 C34  LIG A   1      21.171  19.915   8.248  1.00 20.00    +0.016 C 
ATOM     35 C35  LIG A   1      21.142  19.440   9.702  1.00 20.00    -0.023 C 
ATOM     36 C36  LIG A   1      20.538  20.478  10.649  1.00 20.00    -0.003 C 
ATOM     37 N37  LIG A   1      21.330  21.707  10.671  1.00 20.00    -0.317 NA
ATOM     38 C38  LIG A   1      20.688  22.790  11.417  1.00 20.00    -0.005 C 
ATOM     39 C39  LIG A   1      20.707  22.582  12.936  1.00 20.00    -0.039 C 
ATOM     40 C40  LIG A   1      20.033  23.723  13.707  1.00 20.00    -0.040 C 
ATOM     41 C41  LIG A   1      20.798  25.045  13.627  1.00 20.00    -0.008 C 
ATOM     42 N42  LIG A   1      20.139  26.074  14.424  1.00 20.00    -0.330 NA
ATOM     43 C43  LIG A   1      19.301  17.881   7.145  1.00 20.00    -0.038 A 
ATOM     44 C44  LIG A   1      18.419  16.993   6.513  1.00 20.00    -0.049 A 
ATOM     45 O45  LIG A   1      18.488  13.969   4.588  1.00 20.00    -0.456 OA
ATOM     46 C46  LIG A   1      17.702  13.007   4.002  1.00 20.00    +0.140 A 
ATOM     47 C47  LIG A   1      18.267  11.745   3.819  1.00 20.00    +0.005 A 
ATOM     48 H48  LIG A   1      16.981  11.724   4.224  1.00 20.00    +0.024 H 
ATOM     49 H49  LIG A   1      18.017  11.854   5.651  1.00 20.00    +0.024 H 
ATOM     50 H50  LIG A   1      16.997  13.225   5.156  1.00 20.00    +0.024 H 
ATOM     51 H51  LIG A   1      19.335  12.052   3.545  1.00 20.00    +0.038 H 
ATOM     52 H52  LIG A   1      18.352  13.409   3.010  1.00 20.00    +0.038 H 
ATOM     53 H53  LIG A   1      20.591  16.422   5.881  1.00 20.00    +0.055 H 
ATOM     54 H54  LIG A   1      20.184  17.769   4.006  1.00 20.00    +0.119 HD
ATOM     55 H55  LIG A   1      18.627  18.007   4.387  1.00 20.00    +0.119 HD
ATOM     56 H56  LIG A   1      17.752  17.329   6.617  1.00 20.00    +0.029 H 
ATOM     57 H57  LIG A   1      18.415  15.848   7.263  1.00 20.00    +0.029 H 
ATOM     58 H58  LIG A   1      18.657  17.676   8.838  1.00 20.00    +0.029 H 
ATOM     59 H59  LIG A   1      20.215  17.006   8.395  1.00 20.00    +0.029 H 
ATOM     60 H60  LIG A   1      19.071  19.546   7.116  1.00 20.00    +0.049 H 
ATOM     61 H61  LIG A   1      20.733  18.965   6.978  1.00 20.00    +0.049 H 
ATOM     62 H62  LIG A   1      19.388  19.958   9.423  1.00 20.00    +0.163 HD
ATOM     63 H63  LIG A   1      22.976  18.726   9.955  1.00 20.00    +0.191 HD
ATOM     64 H64  LIG A   1      22.271  20.379  11.085  1.00 20.00    +0.159 HD
ATOM     65 H65  LIG A   1      20.982  21.237  10.483  1.00 20.00    +0.159 HD
ATOM     66 H66  LIG A   1      20.885  12.049   1.070  1.00 20.00    +0.189 HD
ATOM     67 H67  LIG A   1      19.013  12.341   0.051  1.00 20.00    +0.157 HD
ATOM     68 H68  LIG A   1      18.040  11.021  -0.308  1.00 20.00    +0.157 HD
ATOM     69 H69  LIG A   1      20.229   8.636   1.465  1.00 20.00    +0.037 H 
ATOM     70 H70  LIG A   1      19.348   8.637  -0.067  1.00 20.00    +0.037 H 
ATOM     71 H71  LIG A   1      17.253   9.283   1.074  1.00 20.00    +0.049 H 
ATOM     72 H72  LIG A   1      17.929   7.821   1.761  1.00 20.00    +0.049 H 
ATOM     73 H73  LIG A   1      19.076   9.433   3.404  1.00 20.00    +0.160 HD
ATOM     74 H74  LIG A   1      15.604  10.175   2.403  1.00 20.00    +0.064 H 
ATOM     75 H75  LIG A   1      14.613  12.412   2.706  1.00 20.00    +0.063 H 
ATOM     76 H76  LIG A   1      16.286  16.568   4.589  1.00 20.00    +0.070 H 
ATOM     77 H77  LIG A   1      20.579  15.624   4.282  1.00 20.00    +0.063 H 
ATOM     78 H78  LIG A   1      22.108  17.170   5.398  1.00 20.00    +0.064 H 
ATOM     79 H79  LIG A   1      22.361  19.048   6.775  1.00 20.00    +0.160 HD
ATOM     80 H80  LIG A   1      21.915  20.712   8.146  1.00 20.00    +0.049 H 
ATOM     81 H81  LIG A   1      20.214  20.352   7.942  1.00 20.00    +0.049 H 
ATOM     82 H82  LIG A   1      22.158  19.178  10.027  1.00 20.00    +0.030 H 
ATOM     83 H83  LIG A   1      20.552  18.518   9.786  1.00 20.00    +0.030 H 
ATOM     84 H84  LIG A   1      20.493  20.040  11.652  1.00 20.00    +0.043 H 
ATOM     85 H85  LIG A   1      19.509  20.689  10.334  1.00 20.00    +0.043 H 
ATOM     86 H86  LIG A   1      22.249  21.511  11.070  1.00 20.00    +0.122 HD
ATOM     87 H87  LIG A   1      21.232  23.707  11.170  1.00 20.00    +0.043 H 
ATOM     88 H88  LIG A   1      19.661  22.939  11.062  1.00 20.00    +0.043 H 
ATOM     89 H89  LIG A   1      20.174  21.657  13.187  1.00 20.00    +0.028 H 
ATOM     90 H90  LIG A   1      21.738  22.459  13.288  1.00 20.00    +0.028 H 
ATOM     91 H91  LIG A   1      19.952  23.419  14.758  1.00 20.00    +0.028 H 
ATOM     92 H92  LIG A   1      19.009  23.856  13.336  1.00 20.00    +0.028 H 
ATOM     93 H93  LIG A   1      20.862  25.399  12.593  1.00 20.00    +0.043 H 
ATOM     94 H94  LIG A   1      21.821  24.913  13.993  1.00 20.00    +0.043 H 
ATOM     95 H95  LIG A   1      19.189  26.221  14.082  1.00 20.00    +0.118 HD
ATOM     96 H96  LIG A   1      20.043  25.757  15.388  1.00 20.00    +0.118 HD
ATOM     97 H97  LIG A   1      18.915  18.470   7.970  1.00 20.00    +0.064 H 
ATOM     98 H98  LIG A   1      17.394  16.938   6.873  1.00 20.00    +0.063 H 
ATOM     99 H99  LIG A   1      19.294  11.573   4.137  1.00 20.00    +0.068 H 
ENDROOT
TORSDOF 0
                                                                                                      
ENDMDL
MODEL 7
REMARK VINA RESULT:   -10.667      3.298     11.267
REMARK INTER + INTRA:         -10.667
REMARK INTER:                 -10.667
REMARK INTRA:                   0.000
REMARK UNBOUND:                 0.000
ROOT
ATOM      1 C1   LIG A   1      18.592  17.209  10.819  1.00 20.00    -0.056 C 
ATOM      2 C2   LIG A   1      19.985  16.736  11.200  1.00 20.00    -0.002 C 
ATOM      3 S3   LIG A   1      20.721  17.815  12.460  1.00 20.00    -0.087 SA
ATOM      4 C4   LIG A   1      21.290  19.143  11.449  1.00 20.00    +0.205 C 
ATOM      5 O5   LIG A   1      21.270  19.088  10.223  1.00 20.00    -0.285 OA
ATOM      6 C6   LIG A   1      21.839  20.358  12.222  1.00 20.00    +0.074 C 
ATOM      7 N7   LIG A   1      23.118  20.785  11.606  1.00 20.00    -0.321 NA
ATOM      8 C8   LIG A   1      20.808  21.495  12.161  1.00 20.00    -0.028 C 
ATOM      9 C9   LIG A   1      20.985  22.590  13.220  1.00 20.00    -0.034 C 
ATOM     10 C10  LIG A   1      22.351  23.277  13.215  1.00 20.00    +0.018 C 
ATOM     11 N11  LIG A   1      22.322  24.496  14.016  1.00 20.00    -0.357 NA
ATOM     12 C12  LIG A   1      22.309  24.469  15.369  1.00 20.00    +0.185 C 
ATOM     13 N13  LIG A   1      22.415  23.419  16.096  1.00 20.00    -0.270 NA
ATOM     14 N14  LIG A   1      22.194  25.714  15.876  1.00 20.00    -0.370 NA
ATOM     15 N15  LIG A   1      21.251  13.262  11.771  1.00 20.00    -0.289 NA
ATOM     16 C16  LIG A   1      20.792  12.780  10.666  1.00 20.00    +0.092 C 
ATOM     17 N17  LIG A   1      21.400  13.034   9.472  1.00 20.00    -0.388 NA
ATOM     18 C18  LIG A   1      19.551  11.911  10.719  1.00 20.00    +0.022 C 
ATOM     19 C19  LIG A   1      18.335  12.558  10.060  1.00 20.00    +0.022 C 
ATOM     20 N20  LIG A   1      17.930  13.798  10.734  1.00 20.00    -0.384 NA
ATOM     21 C21  LIG A   1      18.357  15.001  10.153  1.00 20.00    +0.038 A 
ATOM     22 C22  LIG A   1      18.094  15.303   8.809  1.00 20.00    -0.038 A 
ATOM     23 C23  LIG A   1      18.532  16.502   8.242  1.00 20.00    -0.045 A 
ATOM     24 C24  LIG A   1      19.229  17.420   9.030  1.00 20.00    +0.065 A 
ATOM     25 C25  LIG A   1      19.714  18.685   8.462  1.00 20.00    +0.193 C 
ATOM     26 O26  LIG A   1      19.557  18.977   7.284  1.00 20.00    -0.289 OA
ATOM     27 C27  LIG A   1      20.412  19.593   9.386  1.00 20.00    +0.030 C 
ATOM     28 C28  LIG A   1      20.579  19.225  10.665  1.00 20.00    +0.138 C 
ATOM     29 C29  LIG A   1      21.266  20.099  11.633  1.00 20.00    +0.017 A 
ATOM     30 C30  LIG A   1      22.199  19.568  12.528  1.00 20.00    -0.049 A 
ATOM     31 C31  LIG A   1      22.845  20.394  13.458  1.00 20.00    -0.038 A 
ATOM     32 C32  LIG A   1      22.599  21.771  13.515  1.00 20.00    +0.034 A 
ATOM     33 N33  LIG A   1      23.223  22.519  14.512  1.00 20.00    -0.385 NA
ATOM     34 C34  LIG A   1      23.238  23.980  14.488  1.00 20.00    +0.016 C 
ATOM     35 C35  LIG A   1      22.075  24.531  15.315  1.00 20.00    -0.023 C 
ATOM     36 C36  LIG A   1      21.909  26.044  15.165  1.00 20.00    -0.003 C 
ATOM     37 N37  LIG A   1      23.088  26.761  15.650  1.00 20.00    -0.317 NA
ATOM     38 C38  LIG A   1      23.050  28.195  15.353  1.00 20.00    -0.005 C 
ATOM     39 C39  LIG A   1      22.047  28.971  16.215  1.00 20.00    -0.039 C 
ATOM     40 C40  LIG A   1      22.016  30.470  15.896  1.00 20.00    -0.040 C 
ATOM     41 C41  LIG A   1      23.301  31.201  16.290  1.00 20.00    -0.008 C 
ATOM     42 N42  LIG A   1      23.189  32.629  16.016  1.00 20.00    -0.330 NA
ATOM     43 C43  LIG A   1      21.630  22.283  12.649  1.00 20.00    -0.038 A 
ATOM     44 C44  LIG A   1      20.981  21.466  11.712  1.00 20.00    -0.049 A 
ATOM     45 O45  LIG A   1      20.151  18.017  11.192  1.00 20.00    -0.456 OA
ATOM     46 C46  LIG A   1      19.476  17.149  10.371  1.00 20.00    +0.140 A 
ATOM     47 C47  LIG A   1      19.034  15.951  10.932  1.00 20.00    +0.005 A 
ATOM     48 H48  LIG A   1      18.156  16.523  10.084  1.00 20.00    +0.024 H 
ATOM     49 H49  LIG A   1      17.926  17.226  11.689  1.00 20.00    +0.024 H 
ATOM     50 H50  LIG A   1      18.606  18.208  10.370  1.00 20.00    +0.024 H 
ATOM     51 H51  LIG A   1      19.917  15.729  11.625  1.00 20.00    +0.038 H 
ATOM     52 H52  LIG A   1      20.630  16.665  10.318  1.00 20.00    +0.038 H 
ATOM     53 H53  LIG A   1      22.038  20.082  13.263  1.00 20.00    +0.055 H 
ATOM     54 H54  LIG A   1      23.800  20.033  11.717  1.00 20.00    +0.119 HD
ATOM     55 H55  LIG A   1      22.972  20.855  10.593  1.00 20.00    +0.119 HD
ATOM     56 H56  LIG A   1      20.813  21.955  11.163  1.00 20.00    +0.029 H 
ATOM     57 H57  LIG A   1      19.799  21.080  12.283  1.00 20.00    +0.029 H 
ATOM     58 H58  LIG A   1      20.202  23.343  13.054  1.00 20.00    +0.029 H 
ATOM     59 H59  LIG A   1      20.785  22.163  14.211  1.00 20.00    +0.029 H 
ATOM     60 H60  LIG A   1      22.619  23.562  12.193  1.00 20.00    +0.049 H 
ATOM     61 H61  LIG A   1      23.136  22.609  13.586  1.00 20.00    +0.049 H 
ATOM     62 H62  LIG A   1      21.713  25.205  13.631  1.00 20.00    +0.163 HD
ATOM     63 H63  LIG A   1      22.362  23.675  17.082  1.00 20.00    +0.191 HD
ATOM     64 H64  LIG A   1      22.444  25.784  16.853  1.00 20.00    +0.159 HD
ATOM     65 H65  LIG A   1      22.719  26.389  15.331  1.00 20.00    +0.159 HD
ATOM     66 H66  LIG A   1      22.105  13.794  11.586  1.00 20.00    +0.189 HD
ATOM     67 H67  LIG A   1      21.964  13.875   9.440  1.00 20.00    +0.157 HD
ATOM     68 H68  LIG A   1      20.832  12.930   8.639  1.00 20.00    +0.157 HD
ATOM     69 H69  LIG A   1      19.327  11.676  11.766  1.00 20.00    +0.037 H 
ATOM     70 H70  LIG A   1      19.778  10.964  10.213  1.00 20.00    +0.037 H 
ATOM     71 H71  LIG A   1      18.514  12.699   8.988  1.00 20.00    +0.049 H 
ATOM     72 H72  LIG A   1      17.495  11.859  10.138  1.00 20.00    +0.049 H 
ATOM     73 H73  LIG A   1      18.162  13.765  11.729  1.00 20.00    +0.160 HD
ATOM     74 H74  LIG A   1      17.520  14.613   8.196  1.00 20.00    +0.064 H 
ATOM     75 H75  LIG A   1      18.319  16.722   7.199  1.00 20.00    +0.063 H 
ATOM     76 H76  LIG A   1      20.767  20.528   8.973  1.00 20.00    +0.070 H 
ATOM     77 H77  LIG A   1      22.434  18.507  12.516  1.00 20.00    +0.063 H 
ATOM     78 H78  LIG A   1      23.551  19.940  14.152  1.00 20.00    +0.064 H 
ATOM     79 H79  LIG A   1      24.106  22.116  14.818  1.00 20.00    +0.160 HD
ATOM     80 H80  LIG A   1      24.183  24.313  14.932  1.00 20.00    +0.049 H 
ATOM     81 H81  LIG A   1      23.230  24.368  13.463  1.00 20.00    +0.049 H 
ATOM     82 H82  LIG A   1      22.215  24.270  16.373  1.00 20.00    +0.030 H 
ATOM     83 H83  LIG A   1      21.135  24.054  15.009  1.00 20.00    +0.030 H 
ATOM     84 H84  LIG A   1      21.023  26.349  15.731  1.00 20.00    +0.043 H 
ATOM     85 H85  LIG A   1      21.724  26.277  14.110  1.00 20.00    +0.043 H 
ATOM     86 H86  LIG A   1      23.181  26.620  16.657  1.00 20.00    +0.122 HD
ATOM     87 H87  LIG A   1      24.058  28.580  15.535  1.00 20.00    +0.043 H 
ATOM     88 H88  LIG A   1      22.848  28.357  14.288  1.00 20.00    +0.043 H 
ATOM     89 H89  LIG A   1      21.036  28.579  16.046  1.00 20.00    +0.028 H 
ATOM     90 H90  LIG A   1      22.269  28.825  17.279  1.00 20.00    +0.028 H 
ATOM     91 H91  LIG A   1      21.171  30.913  16.439  1.00 20.00    +0.028 H 
ATOM     92 H92  LIG A   1      21.814  30.610  14.827  1.00 20.00    +0.028 H 
ATOM     93 H93  LIG A   1      24.160  30.810  15.736  1.00 20.00    +0.043 H 
ATOM     94 H94  LIG A   1      23.505  31.059  17.356  1.00 20.00    +0.043 H 
ATOM     95 H95  LIG A   1      23.016  32.778  15.020  1.00 20.00    +0.118 HD
ATOM     96 H96  LIG A   1      22.379  33.013  16.500  1.00 20.00    +0.118 HD
ATOM     97 H97  LIG A   1      21.348  23.331  12.683  1.00 20.00    +0.064 H 
ATOM     98 H98  LIG A   1      20.234  21.917  11.062  1.00 20.00    +0.063 H 
ATOM     99 H99  LIG A   1      19.243  15.749  11.980  1.00 20.00    +0.068 H 
ENDROOT
TORSDOF 0
                                                                                                      
ENDMDL
MODEL 8
REMARK VINA RESULT:   -10.583      3.891      5.585
REMARK INTER + INTRA:         -10.583
REMARK INTER:                 -10.583
REMARK INTRA:                   0.000
REMARK UNBOUND:                 0.000
ROOT
ATOM      1 C1   LIG A   1      19.694  24.785  15.060  1.00 20.00    -0.056 C 
ATOM      2 C2   LIG A   1      19.524  25.148  13.595  1.00 20.00    -0.002 C 
ATOM      3 S3   LIG A   1      19.047  23.699  12.612  1.00 20.00    -0.087 SA
ATOM      4 C4   LIG A   1      20.619  22.933  12.390  1.00 20.00    +0.205 C 
ATOM      5 O5   LIG A   1      21.668  23.478  12.724  1.00 20.00    -0.285 OA
ATOM      6 C6   LIG A   1      20.577  21.546  11.720  1.00 20.00    +0.074 C 
ATOM      7 N7   LIG A   1      21.619  21.486  10.667  1.00 20.00    -0.321 NA
ATOM      8 C8   LIG A   1      20.829  20.469  12.785  1.00 20.00    -0.028 C 
ATOM      9 C9   LIG A   1      20.392  19.052  12.395  1.00 20.00    -0.034 C 
ATOM     10 C10  LIG A   1      21.025  18.513  11.112  1.00 20.00    +0.018 C 
ATOM     11 N11  LIG A   1      20.811  17.075  10.993  1.00 20.00    -0.357 NA
ATOM     12 C12  LIG A   1      19.611  16.550  10.653  1.00 20.00    +0.185 C 
ATOM     13 N13  LIG A   1      18.574  17.220  10.312  1.00 20.00    -0.270 NA
ATOM     14 N14  LIG A   1      19.643  15.202  10.694  1.00 20.00    -0.370 NA
ATOM     15 N15  LIG A   1      17.935  28.165  12.054  1.00 20.00    -0.289 NA
ATOM     16 C16  LIG A   1      18.590  29.024  12.760  1.00 20.00    +0.092 C 
ATOM     17 N17  LIG A   1      19.896  29.313  12.495  1.00 20.00    -0.388 NA
ATOM     18 C18  LIG A   1      17.872  29.717  13.901  1.00 20.00    +0.022 C 
ATOM     19 C19  LIG A   1      18.402  29.319  15.276  1.00 20.00    +0.022 C 
ATOM     20 N20  LIG A   1      18.211  27.889  15.553  1.00 20.00    -0.384 NA
ATOM     21 C21  LIG A   1      19.320  27.053  15.351  1.00 20.00    +0.038 A 
ATOM     22 C22  LIG A   1      20.553  27.306  15.967  1.00 20.00    -0.038 A 
ATOM     23 C23  LIG A   1      21.651  26.469  15.751  1.00 20.00    -0.045 A 
ATOM     24 C24  LIG A   1      21.512  25.357  14.920  1.00 20.00    +0.065 A 
ATOM     25 C25  LIG A   1      22.649  24.463  14.661  1.00 20.00    +0.193 C 
ATOM     26 O26  LIG A   1      23.761  24.663  15.132  1.00 20.00    -0.289 OA
ATOM     27 C27  LIG A   1      22.387  23.304  13.793  1.00 20.00    +0.030 C 
ATOM     28 C28  LIG A   1      21.159  23.132  13.283  1.00 20.00    +0.138 C 
ATOM     29 C29  LIG A   1      20.841  21.985  12.412  1.00 20.00    +0.017 A 
ATOM     30 C30  LIG A   1      20.079  22.165  11.254  1.00 20.00    -0.049 A 
ATOM     31 C31  LIG A   1      19.766  21.075  10.430  1.00 20.00    -0.038 A 
ATOM     32 C32  LIG A   1      20.214  19.780  10.721  1.00 20.00    +0.034 A 
ATOM     33 N33  LIG A   1      19.803  18.733   9.897  1.00 20.00    -0.385 NA
ATOM     34 C34  LIG A   1      20.422  17.411   9.961  1.00 20.00    +0.016 C 
ATOM     35 C35  LIG A   1      19.623  16.501  10.896  1.00 20.00    -0.023 C 
ATOM     36 C36  LIG A   1      20.328  15.171  11.169  1.00 20.00    -0.003 C 
ATOM     37 N37  LIG A   1      20.497  14.394   9.942  1.00 20.00    -0.317 NA
ATOM     38 C38  LIG A   1      21.330  13.204  10.126  1.00 20.00    -0.005 C 
ATOM     39 C39  LIG A   1      20.633  12.085  10.908  1.00 20.00    -0.039 C 
ATOM     40 C40  LIG A   1      21.515  10.844  11.094  1.00 20.00    -0.040 C 
ATOM     41 C41  LIG A   1      21.796  10.098   9.789  1.00 20.00    -0.008 C 
ATOM     42 N42  LIG A   1      22.589   8.900  10.038  1.00 20.00    -0.330 NA
ATOM     43 C43  LIG A   1      20.932  19.603  11.906  1.00 20.00    -0.038 A 
ATOM     44 C44  LIG A   1      21.255  20.688  12.734  1.00 20.00    -0.049 A 
ATOM     45 O45  LIG A   1      20.096  23.993  13.499  1.00 20.00    -0.456 OA
ATOM     46 C46  LIG A   1      20.290  25.075  14.321  1.00 20.00    +0.140 A 
ATOM     47 C47  LIG A   1      19.197  25.914  14.542  1.00 20.00    +0.005 A 
ATOM     48 H48  LIG A   1      19.948  25.681  15.638  1.00 20.00    +0.024 H 
ATOM     49 H49  LIG A   1      18.768  24.375  15.478  1.00 20.00    +0.024 H 
ATOM     50 H50  LIG A   1      20.498  24.056  15.212  1.00 20.00    +0.024 H 
ATOM     51 H51  LIG A   1      18.725  25.890  13.500  1.00 20.00    +0.038 H 
ATOM     52 H52  LIG A   1      20.435  25.610  13.198  1.00 20.00    +0.038 H 
ATOM     53 H53  LIG A   1      19.603  21.389  11.244  1.00 20.00    +0.055 H 
ATOM     54 H54  LIG A   1      21.390  22.169   9.942  1.00 20.00    +0.119 HD
ATOM     55 H55  LIG A   1      22.498  21.823  11.073  1.00 20.00    +0.119 HD
ATOM     56 H56  LIG A   1      21.893  20.454  13.062  1.00 20.00    +0.029 H 
ATOM     57 H57  LIG A   1      20.294  20.736  13.707  1.00 20.00    +0.029 H 
ATOM     58 H58  LIG A   1      20.643  18.384  13.230  1.00 20.00    +0.029 H 
ATOM     59 H59  LIG A   1      19.298  19.028  12.309  1.00 20.00    +0.029 H 
ATOM     60 H60  LIG A   1      22.106  18.684  11.132  1.00 20.00    +0.049 H 
ATOM     61 H61  LIG A   1      20.629  19.021  10.226  1.00 20.00    +0.049 H 
ATOM     62 H62  LIG A   1      21.282  16.546  11.714  1.00 20.00    +0.163 HD
ATOM     63 H63  LIG A   1      17.799  16.585  10.119  1.00 20.00    +0.191 HD
ATOM     64 H64  LIG A   1      18.879  14.758  10.203  1.00 20.00    +0.159 HD
ATOM     65 H65  LIG A   1      20.530  14.840  10.362  1.00 20.00    +0.159 HD
ATOM     66 H66  LIG A   1      18.532  27.808  11.305  1.00 20.00    +0.189 HD
ATOM     67 H67  LIG A   1      20.411  28.594  12.001  1.00 20.00    +0.157 HD
ATOM     68 H68  LIG A   1      20.439  29.710  13.254  1.00 20.00    +0.157 HD
ATOM     69 H69  LIG A   1      16.801  29.493  13.834  1.00 20.00    +0.037 H 
ATOM     70 H70  LIG A   1      17.989  30.800  13.766  1.00 20.00    +0.037 H 
ATOM     71 H71  LIG A   1      19.445  29.635  15.388  1.00 20.00    +0.049 H 
ATOM     72 H72  LIG A   1      17.834  29.872  16.032  1.00 20.00    +0.049 H 
ATOM     73 H73  LIG A   1      17.385  27.530  15.070  1.00 20.00    +0.160 HD
ATOM     74 H74  LIG A   1      20.663  28.148  16.646  1.00 20.00    +0.064 H 
ATOM     75 H75  LIG A   1      22.600  26.678  16.238  1.00 20.00    +0.063 H 
ATOM     76 H76  LIG A   1      23.220  22.640  13.603  1.00 20.00    +0.070 H 
ATOM     77 H77  LIG A   1      19.719  23.152  10.978  1.00 20.00    +0.063 H 
ATOM     78 H78  LIG A   1      19.153  21.252   9.548  1.00 20.00    +0.064 H 
ATOM     79 H79  LIG A   1      19.597  19.032   8.947  1.00 20.00    +0.160 HD
ATOM     80 H80  LIG A   1      20.411  16.986   8.951  1.00 20.00    +0.049 H 
ATOM     81 H81  LIG A   1      21.477  17.472  10.253  1.00 20.00    +0.049 H 
ATOM     82 H82  LIG A   1      18.625  16.320  10.474  1.00 20.00    +0.030 H 
ATOM     83 H83  LIG A   1      19.457  17.002  11.859  1.00 20.00    +0.030 H 
ATOM     84 H84  LIG A   1      19.729  14.609  11.892  1.00 20.00    +0.043 H 
ATOM     85 H85  LIG A   1      21.301  15.374  11.632  1.00 20.00    +0.043 H 
ATOM     86 H86  LIG A   1      19.580  14.121   9.584  1.00 20.00    +0.122 HD
ATOM     87 H87  LIG A   1      21.585  12.842   9.126  1.00 20.00    +0.043 H 
ATOM     88 H88  LIG A   1      22.278  13.475  10.605  1.00 20.00    +0.043 H 
ATOM     89 H89  LIG A   1      20.364  12.447  11.907  1.00 20.00    +0.028 H 
ATOM     90 H90  LIG A   1      19.698  11.801  10.411  1.00 20.00    +0.028 H 
ATOM     91 H91  LIG A   1      21.003  10.168  11.790  1.00 20.00    +0.028 H 
ATOM     92 H92  LIG A   1      22.458  11.137  11.573  1.00 20.00    +0.028 H 
ATOM     93 H93  LIG A   1      22.343  10.733   9.084  1.00 20.00    +0.043 H 
ATOM     94 H94  LIG A   1      20.856   9.808   9.309  1.00 20.00    +0.043 H 
ATOM     95 H95  LIG A   1      23.478   9.157  10.470  1.00 20.00    +0.118 HD
ATOM     96 H96  LIG A   1      22.113   8.303  10.713  1.00 20.00    +0.118 HD
ATOM     97 H97  LIG A   1      21.257  18.617  12.220  1.00 20.00    +0.064 H 
ATOM     98 H98  LIG A   1      21.817  20.493  13.644  1.00 20.00    +0.063 H 
ATOM     99 H99  LIG A   1      18.249  25.686  14.060  1.00 20.00    +0.068 H 
ENDROOT
TORSDOF 0
                                                                                                      
ENDMDL
MODEL 9
REMARK VINA RESULT:   -10.503      4.136      6.501
REMARK INTER + INTRA:         -10.503
REMARK INTER:                 -10.503
REMARK INTRA:                   0.000
REMARK UNBOUND:                 0.000
ROOT
ATOM      1 C1   LIG A   1      23.020  18.025   7.509  1.00 20.00    -0.056 C 
ATOM      2 C2   LIG A   1      21.952  18.033   8.589  1.00 20.00    -0.002 C 
ATOM      3 S3   LIG A   1      20.704  16.750   8.285  1.00 20.00    -0.087 SA
ATOM      4 C4   LIG A   1      19.701  17.559   7.082  1.00 20.00    +0.205 C 
ATOM      5 O5   LIG A   1      19.853  18.742   6.790  1.00 20.00    -0.285 OA
ATOM      6 C6   LIG A   1      18.605  16.678   6.452  1.00 20.00    +0.074 C 
ATOM      7 N7   LIG A   1      17.330  17.434   6.430  1.00 20.00    -0.321 NA
ATOM      8 C8   LIG A   1      19.028  16.299   5.025  1.00 20.00    -0.028 C 
ATOM      9 C9   LIG A   1      18.292  15.095   4.426  1.00 20.00    -0.034 C 
ATOM     10 C10  LIG A   1      16.769  15.228   4.378  1.00 20.00    +0.018 C 
ATOM     11 N11  LIG A   1      16.186  14.205   3.518  1.00 20.00    -0.357 NA
ATOM     12 C12  LIG A   1      16.087  12.911   3.902  1.00 20.00    +0.185 C 
ATOM     13 N13  LIG A   1      16.391  12.451   5.058  1.00 20.00    -0.270 NA
ATOM     14 N14  LIG A   1      15.595  12.148   2.905  1.00 20.00    -0.370 NA
ATOM     15 N15  LIG A   1      22.303  18.449  12.291  1.00 20.00    -0.289 NA
ATOM     16 C16  LIG A   1      23.025  19.516  12.227  1.00 20.00    +0.092 C 
ATOM     17 N17  LIG A   1      22.478  20.728  11.928  1.00 20.00    -0.388 NA
ATOM     18 C18  LIG A   1      24.512  19.398  12.498  1.00 20.00    +0.022 C 
ATOM     19 C19  LIG A   1      25.371  19.656  11.263  1.00 20.00    +0.022 C 
ATOM     20 N20  LIG A   1      25.125  18.675  10.198  1.00 20.00    -0.384 NA
ATOM     21 C21  LIG A   1      24.264  19.070   9.162  1.00 20.00    +0.038 A 
ATOM     22 C22  LIG A   1      24.487  20.244   8.429  1.00 20.00    -0.038 A 
ATOM     23 C23  LIG A   1      23.618  20.628   7.405  1.00 20.00    -0.045 A 
ATOM     24 C24  LIG A   1      22.519  19.823   7.099  1.00 20.00    +0.065 A 
ATOM     25 C25  LIG A   1      21.579  20.204   6.036  1.00 20.00    +0.193 C 
ATOM     26 O26  LIG A   1      21.696  21.242   5.399  1.00 20.00    -0.289 OA
ATOM     27 C27  LIG A   1      20.472  19.270   5.776  1.00 20.00    +0.030 C 
ATOM     28 C28  LIG A   1      20.370  18.153   6.510  1.00 20.00    +0.138 C 
ATOM     29 C29  LIG A   1      19.284  17.182   6.287  1.00 20.00    +0.017 A 
ATOM     30 C30  LIG A   1      18.605  16.618   7.370  1.00 20.00    -0.049 A 
ATOM     31 C31  LIG A   1      17.579  15.685   7.162  1.00 20.00    -0.038 A 
ATOM     32 C32  LIG A   1      17.186  15.300   5.874  1.00 20.00    +0.034 A 
ATOM     33 N33  LIG A   1      16.209  14.313   5.744  1.00 20.00    -0.385 NA
ATOM     34 C34  LIG A   1      15.553  14.040   4.466  1.00 20.00    +0.016 C 
ATOM     35 C35  LIG A   1      16.273  12.904   3.738  1.00 20.00    -0.023 C 
ATOM     36 C36  LIG A   1      15.767  12.705   2.309  1.00 20.00    -0.003 C 
ATOM     37 N37  LIG A   1      14.354  12.327   2.291  1.00 20.00    -0.317 NA
ATOM     38 C38  LIG A   1      13.783  12.309   0.943  1.00 20.00    -0.005 C 
ATOM     39 C39  LIG A   1      14.258  11.125   0.092  1.00 20.00    -0.039 C 
ATOM     40 C40  LIG A   1      13.652  11.117  -1.316  1.00 20.00    -0.040 C 
ATOM     41 C41  LIG A   1      12.147  10.845  -1.328  1.00 20.00    -0.008 C 
ATOM     42 N42  LIG A   1      11.641  10.793  -2.695  1.00 20.00    -0.330 NA
ATOM     43 C43  LIG A   1      17.903  15.832   4.801  1.00 20.00    -0.038 A 
ATOM     44 C44  LIG A   1      18.927  16.769   4.998  1.00 20.00    -0.049 A 
ATOM     45 O45  LIG A   1      21.238  17.811   7.535  1.00 20.00    -0.456 OA
ATOM     46 C46  LIG A   1      22.298  18.642   7.797  1.00 20.00    +0.140 A 
ATOM     47 C47  LIG A   1      23.170  18.263   8.817  1.00 20.00    +0.005 A 
ATOM     48 H48  LIG A   1      23.778  18.785   7.733  1.00 20.00    +0.024 H 
ATOM     49 H49  LIG A   1      23.529  17.056   7.460  1.00 20.00    +0.024 H 
ATOM     50 H50  LIG A   1      22.607  18.254   6.521  1.00 20.00    +0.024 H 
ATOM     51 H51  LIG A   1      22.418  17.818   9.556  1.00 20.00    +0.038 H 
ATOM     52 H52  LIG A   1      21.486  19.021   8.673  1.00 20.00    +0.038 H 
ATOM     53 H53  LIG A   1      18.455  15.776   7.055  1.00 20.00    +0.055 H 
ATOM     54 H54  LIG A   1      17.043  17.617   7.393  1.00 20.00    +0.119 HD
ATOM     55 H55  LIG A   1      17.521  18.362   6.035  1.00 20.00    +0.119 HD
ATOM     56 H56  LIG A   1      18.910  17.162   4.355  1.00 20.00    +0.029 H 
ATOM     57 H57  LIG A   1      20.102  16.067   5.012  1.00 20.00    +0.029 H 
ATOM     58 H58  LIG A   1      18.673  14.944   3.406  1.00 20.00    +0.029 H 
ATOM     59 H59  LIG A   1      18.569  14.193   4.986  1.00 20.00    +0.029 H 
ATOM     60 H60  LIG A   1      16.496  16.204   3.961  1.00 20.00    +0.049 H 
ATOM     61 H61  LIG A   1      16.331  15.165   5.379  1.00 20.00    +0.049 H 
ATOM     62 H62  LIG A   1      16.450  14.309   2.548  1.00 20.00    +0.163 HD
ATOM     63 H63  LIG A   1      16.236  11.443   5.081  1.00 20.00    +0.191 HD
ATOM     64 H64  LIG A   1      15.253  11.246   3.210  1.00 20.00    +0.159 HD
ATOM     65 H65  LIG A   1      14.877  12.636   2.380  1.00 20.00    +0.159 HD
ATOM     66 H66  LIG A   1      21.323  18.686  12.121  1.00 20.00    +0.189 HD
ATOM     67 H67  LIG A   1      21.606  20.698  11.413  1.00 20.00    +0.157 HD
ATOM     68 H68  LIG A   1      23.105  21.436  11.563  1.00 20.00    +0.157 HD
ATOM     69 H69  LIG A   1      24.722  18.397  12.896  1.00 20.00    +0.037 H 
ATOM     70 H70  LIG A   1      24.772  20.121  13.280  1.00 20.00    +0.037 H 
ATOM     71 H71  LIG A   1      25.246  20.689  10.922  1.00 20.00    +0.049 H 
ATOM     72 H72  LIG A   1      26.423  19.558  11.554  1.00 20.00    +0.049 H 
ATOM     73 H73  LIG A   1      24.842  17.774  10.589  1.00 20.00    +0.160 HD
ATOM     74 H74  LIG A   1      25.359  20.859   8.633  1.00 20.00    +0.064 H 
ATOM     75 H75  LIG A   1      23.805  21.541   6.845  1.00 20.00    +0.063 H 
ATOM     76 H76  LIG A   1      19.779  19.545   4.991  1.00 20.00    +0.070 H 
ATOM     77 H77  LIG A   1      18.864  16.893   8.389  1.00 20.00    +0.063 H 
ATOM     78 H78  LIG A   1      17.088  15.253   8.032  1.00 20.00    +0.064 H 
ATOM     79 H79  LIG A   1      15.571  14.278   6.536  1.00 20.00    +0.160 HD
ATOM     80 H80  LIG A   1      14.522  13.734   4.678  1.00 20.00    +0.049 H 
ATOM     81 H81  LIG A   1      15.481  14.941   3.848  1.00 20.00    +0.049 H 
ATOM     82 H82  LIG A   1      16.168  11.971   4.310  1.00 20.00    +0.030 H 
ATOM     83 H83  LIG A   1      17.351  13.110   3.692  1.00 20.00    +0.030 H 
ATOM     84 H84  LIG A   1      16.373  11.924   1.837  1.00 20.00    +0.043 H 
ATOM     85 H85  LIG A   1      15.924  13.632   1.745  1.00 20.00    +0.043 H 
ATOM     86 H86  LIG A   1      14.243  11.409   2.724  1.00 20.00    +0.122 HD
ATOM     87 H87  LIG A   1      12.696  12.255   1.063  1.00 20.00    +0.043 H 
ATOM     88 H88  LIG A   1      13.987  13.257   0.431  1.00 20.00    +0.043 H 
ATOM     89 H89  LIG A   1      15.348  11.168  -0.021  1.00 20.00    +0.028 H 
ATOM     90 H90  LIG A   1      14.028  10.180   0.597  1.00 20.00    +0.028 H 
ATOM     91 H91  LIG A   1      14.162  10.339  -1.898  1.00 20.00    +0.028 H 
ATOM     92 H92  LIG A   1      13.866  12.073  -1.809  1.00 20.00    +0.028 H 
ATOM     93 H93  LIG A   1      11.602  11.626  -0.789  1.00 20.00    +0.043 H 
ATOM     94 H94  LIG A   1      11.931   9.892  -0.833  1.00 20.00    +0.043 H 
ATOM     95 H95  LIG A   1      11.819  11.682  -3.164  1.00 20.00    +0.118 HD
ATOM     96 H96  LIG A   1      12.151  10.089  -3.228  1.00 20.00    +0.118 HD
ATOM     97 H97  LIG A   1      17.689  15.529   3.781  1.00 20.00    +0.064 H 
ATOM     98 H98  LIG A   1      19.453  17.152   4.126  1.00 20.00    +0.063 H 
ATOM     99 H99  LIG A   1      22.979  17.340   9.362  1.00 20.00    +0.068 H 
ENDROOT
TORSDOF 0
                                                                                                      
ENDMDL
