ROOT
ATOM      1 C1   LIG A   1      -4.859  -1.435   0.829  1.00 20.00    -0.056 C 
ATOM      2 C2   LIG A   1      -4.901  -0.545  -0.401  1.00 20.00    -0.002 C 
ATOM      3 S3   LIG A   1      -3.317  -0.567  -1.290  1.00 20.00    -0.087 SA
ATOM      4 C4   LIG A   1      -2.355   0.485  -0.247  1.00 20.00    +0.205 C 
ATOM      5 O5   LIG A   1      -2.871   1.212   0.595  1.00 20.00    -0.285 OA
ATOM      6 C6   LIG A   1      -0.847   0.490  -0.571  1.00 20.00    +0.074 C 
ATOM      7 N7   LIG A   1      -0.555   1.591  -1.515  1.00 20.00    -0.321 NA
ATOM      8 C8   LIG A   1      -0.035   0.661   0.723  1.00 20.00    -0.028 C 
ATOM      9 C9   LIG A   1       1.423   0.193   0.633  1.00 20.00    -0.034 C 
ATOM     10 C10  LIG A   1       2.260   0.897  -0.435  1.00 20.00    +0.018 C 
ATOM     11 N11  LIG A   1       3.677   0.599  -0.257  1.00 20.00    -0.357 NA
ATOM     12 C12  LIG A   1       4.206  -0.598  -0.596  1.00 20.00    +0.185 C 
ATOM     13 N13  LIG A   1       3.589  -1.541  -1.205  1.00 20.00    -0.270 NA
ATOM     14 N14  LIG A   1       5.499  -0.682  -0.222  1.00 20.00    -0.370 NA
ATOM     15 N15  LIG A   1     -12.008   0.322   0.473  1.00 20.00    -0.289 NA
ATOM     16 C16  LIG A   1     -10.728   0.277   0.300  1.00 20.00    +0.092 C 
ATOM     17 N17  LIG A   1      -9.982   1.339   0.709  1.00 20.00    -0.388 NA
ATOM     18 C18  LIG A   1     -10.048  -0.913  -0.339  1.00 20.00    +0.022 C 
ATOM     19 C19  LIG A   1      -9.764  -0.648  -1.816  1.00 20.00    +0.022 C 
ATOM     20 N20  LIG A   1      -8.693   0.329  -2.017  1.00 20.00    -0.384 NA
ATOM     21 C21  LIG A   1      -7.360   0.043  -1.732  1.00 20.00    +0.038 A 
ATOM     22 C22  LIG A   1      -6.839  -1.257  -1.680  1.00 20.00    -0.038 A 
ATOM     23 C23  LIG A   1      -5.478  -1.485  -1.445  1.00 20.00    -0.045 A 
ATOM     24 C24  LIG A   1      -4.610  -0.405  -1.291  1.00 20.00    +0.065 A 
ATOM     25 C25  LIG A   1      -3.174  -0.619  -1.038  1.00 20.00    +0.200 C 
ATOM     26 O26  LIG A   1      -2.725  -1.754  -0.927  1.00 20.00    -0.288 OA
ATOM     27 C27  LIG A   1      -2.329   0.604  -0.925  1.00 20.00    +0.065 C 
ATOM     28 C28  LIG A   1      -0.880   0.539  -0.661  1.00 20.00    -0.011 A 
ATOM     29 C29  LIG A   1       0.034   1.258  -1.440  1.00 20.00    -0.052 A 
ATOM     30 C30  LIG A   1       1.408   1.186  -1.177  1.00 20.00    -0.038 A 
ATOM     31 C31  LIG A   1       1.916   0.376  -0.152  1.00 20.00    +0.034 A 
ATOM     32 N32  LIG A   1       3.295   0.398   0.092  1.00 20.00    -0.385 NA
ATOM     33 C33  LIG A   1       3.893  -0.656   0.907  1.00 20.00    +0.016 C 
ATOM     34 C34  LIG A   1       5.417  -0.518   0.934  1.00 20.00    -0.023 C 
ATOM     35 C35  LIG A   1       5.870   0.719   1.716  1.00 20.00    -0.003 C 
ATOM     36 N36  LIG A   1       7.325   0.799   1.888  1.00 20.00    -0.317 NA
ATOM     37 C37  LIG A   1       8.022   1.143   0.649  1.00 20.00    -0.005 C 
ATOM     38 C38  LIG A   1       9.505   1.427   0.906  1.00 20.00    -0.039 C 
ATOM     39 C39  LIG A   1      10.317   0.344   1.631  1.00 20.00    -0.040 C 
ATOM     40 C40  LIG A   1      10.255  -1.051   1.006  1.00 20.00    -0.008 C 
ATOM     41 N41  LIG A   1       9.064  -1.788   1.425  1.00 20.00    -0.330 NA
ATOM     42 C42  LIG A   1       0.994  -0.307   0.646  1.00 20.00    -0.038 A 
ATOM     43 C43  LIG A   1      -0.382  -0.241   0.387  1.00 20.00    -0.052 A 
ATOM     44 C44  LIG A   1      -2.953   1.787  -1.038  1.00 20.00    +0.103 C 
ATOM     45 O45  LIG A   1      -4.293   1.996  -1.263  1.00 20.00    -0.463 OA
ATOM     46 C46  LIG A   1      -5.096   0.892  -1.386  1.00 20.00    +0.139 A 
ATOM     47 C47  LIG A   1      -6.457   1.112  -1.617  1.00 20.00    +0.005 A 
ATOM     48 H48  LIG A   1      -5.840  -1.439   1.318  1.00 20.00    +0.024 H 
ATOM     49 H49  LIG A   1      -4.619  -2.471   0.566  1.00 20.00    +0.024 H 
ATOM     50 H50  LIG A   1      -4.128  -1.084   1.564  1.00 20.00    +0.024 H 
ATOM     51 H51  LIG A   1      -5.667  -0.922  -1.086  1.00 20.00    +0.038 H 
ATOM     52 H52  LIG A   1      -5.183   0.479  -0.134  1.00 20.00    +0.038 H 
ATOM     53 H53  LIG A   1      -0.575  -0.465  -1.035  1.00 20.00    +0.055 H 
ATOM     54 H54  LIG A   1      -1.081   1.436  -2.377  1.00 20.00    +0.119 HD
ATOM     55 H55  LIG A   1      -0.913   2.465  -1.123  1.00 20.00    +0.119 HD
ATOM     56 H56  LIG A   1      -0.062   1.707   1.055  1.00 20.00    +0.029 H 
ATOM     57 H57  LIG A   1      -0.513   0.084   1.526  1.00 20.00    +0.029 H 
ATOM     58 H58  LIG A   1       1.886   0.343   1.617  1.00 20.00    +0.029 H 
ATOM     59 H59  LIG A   1       1.437  -0.890   0.456  1.00 20.00    +0.029 H 
ATOM     60 H60  LIG A   1       2.136   1.983  -0.350  1.00 20.00    +0.049 H 
ATOM     61 H61  LIG A   1       1.947   0.609  -1.444  1.00 20.00    +0.049 H 
ATOM     62 H62  LIG A   1       4.054   0.976   0.604  1.00 20.00    +0.163 HD
ATOM     63 H63  LIG A   1       4.210  -2.341  -1.322  1.00 20.00    +0.191 HD
ATOM     64 H64  LIG A   1       6.012  -1.429  -0.671  1.00 20.00    +0.159 HD
ATOM     65 H65  LIG A   1       5.985   0.200  -0.339  1.00 20.00    +0.159 HD
ATOM     66 H66  LIG A   1     -12.459  -0.531   0.125  1.00 20.00    +0.189 HD
ATOM     67 H67  LIG A   1     -10.496   1.943   1.345  1.00 20.00    +0.157 HD
ATOM     68 H68  LIG A   1      -9.034   1.143   1.011  1.00 20.00    +0.157 HD
ATOM     69 H69  LIG A   1      -9.133  -1.139   0.219  1.00 20.00    +0.037 H 
ATOM     70 H70  LIG A   1     -10.709  -1.782  -0.249  1.00 20.00    +0.037 H 
ATOM     71 H71  LIG A   1     -10.666  -0.252  -2.297  1.00 20.00    +0.049 H 
ATOM     72 H72  LIG A   1      -9.536  -1.584  -2.337  1.00 20.00    +0.049 H 
ATOM     73 H73  LIG A   1      -8.973   1.259  -1.703  1.00 20.00    +0.160 HD
ATOM     74 H74  LIG A   1      -7.478  -2.123  -1.822  1.00 20.00    +0.064 H 
ATOM     75 H75  LIG A   1      -5.101  -2.505  -1.396  1.00 20.00    +0.063 H 
ATOM     76 H76  LIG A   1      -0.305   1.879  -2.266  1.00 20.00    +0.063 H 
ATOM     77 H77  LIG A   1       2.086   1.774  -1.791  1.00 20.00    +0.064 H 
ATOM     78 H78  LIG A   1       3.813   0.577  -0.766  1.00 20.00    +0.160 HD
ATOM     79 H79  LIG A   1       3.510  -0.616   1.934  1.00 20.00    +0.049 H 
ATOM     80 H80  LIG A   1       3.642  -1.637   0.484  1.00 20.00    +0.049 H 
ATOM     81 H81  LIG A   1       5.799  -0.485  -0.093  1.00 20.00    +0.030 H 
ATOM     82 H82  LIG A   1       5.833  -1.417   1.404  1.00 20.00    +0.030 H 
ATOM     83 H83  LIG A   1       5.430   0.681   2.720  1.00 20.00    +0.043 H 
ATOM     84 H84  LIG A   1       5.494   1.638   1.253  1.00 20.00    +0.043 H 
ATOM     85 H85  LIG A   1       7.677  -0.120   2.175  1.00 20.00    +0.122 HD
ATOM     86 H86  LIG A   1       7.927   0.341  -0.091  1.00 20.00    +0.043 H 
ATOM     87 H87  LIG A   1       7.580   2.044   0.207  1.00 20.00    +0.043 H 
ATOM     88 H88  LIG A   1       9.982   1.628  -0.062  1.00 20.00    +0.028 H 
ATOM     89 H89  LIG A   1       9.593   2.356   1.484  1.00 20.00    +0.028 H 
ATOM     90 H90  LIG A   1      10.028   0.301   2.688  1.00 20.00    +0.028 H 
ATOM     91 H91  LIG A   1      11.366   0.669   1.627  1.00 20.00    +0.028 H 
ATOM     92 H92  LIG A   1      10.282  -0.982  -0.086  1.00 20.00    +0.043 H 
ATOM     93 H93  LIG A   1      11.136  -1.624   1.318  1.00 20.00    +0.043 H 
ATOM     94 H94  LIG A   1       9.135  -1.984   2.425  1.00 20.00    +0.118 HD
ATOM     95 H95  LIG A   1       9.066  -2.701   0.969  1.00 20.00    +0.118 HD
ATOM     96 H96  LIG A   1       1.319  -0.915   1.484  1.00 20.00    +0.064 H 
ATOM     97 H97  LIG A   1      -1.059  -0.812   1.020  1.00 20.00    +0.063 H 
ATOM     98 H98  LIG A   1      -2.452   2.745  -0.949  1.00 20.00    +0.105 H 
ATOM     99 H99  LIG A   1      -6.815   2.136  -1.709  1.00 20.00    +0.068 H 
ENDROOT
TORSDOF 0
