ROOT
ATOM      1 C1   LIG A   1      -2.420  -1.062   0.909  1.00 20.00    -0.044 C 
ATOM      2 C2   LIG A   1      -1.202  -0.548   0.086  1.00 20.00    +0.047 C 
ATOM      3 C3   LIG A   1      -1.246  -1.267  -1.284  1.00 20.00    -0.044 C 
ATOM      4 C4   LIG A   1      -1.451   0.977  -0.127  1.00 20.00    -0.006 C 
ATOM      5 C5   LIG A   1      -0.189   1.837  -0.055  1.00 20.00    +0.058 C 
ATOM      6 O6   LIG A   1      -0.390   3.048  -0.797  1.00 20.00    -0.393 OA
ATOM      7 C7   LIG A   1       1.014   1.095  -0.602  1.00 20.00    -0.006 C 
ATOM      8 C8   LIG A   1       1.315  -0.174   0.243  1.00 20.00    +0.047 C 
ATOM      9 C9   LIG A   1       2.141  -1.134  -0.654  1.00 20.00    -0.044 C 
ATOM     10 C10  LIG A   1       2.228   0.252   1.425  1.00 20.00    -0.044 C 
ATOM     11 N11  LIG A   1       0.062  -0.715   0.836  1.00 20.00    -0.144 NA
ATOM     12 O12  LIG A   1       0.246  -2.077   1.247  1.00 20.00    -0.120 OA
ATOM     13 C13  LIG A   1       4.204  -1.103  -1.402  1.00 20.00    -0.060 C 
ATOM     14 C14  LIG A   1       3.251   0.015  -0.930  1.00 20.00    -0.016 C 
ATOM     15 C15  LIG A   1       2.370   0.476  -2.135  1.00 20.00    -0.023 C 
ATOM     16 C16  LIG A   1       0.990  -0.122  -2.163  1.00 20.00    -0.047 A 
ATOM     17 C17  LIG A   1       0.787  -1.465  -2.460  1.00 20.00    -0.059 A 
ATOM     18 C18  LIG A   1      -0.395  -2.078  -2.063  1.00 20.00    -0.057 A 
ATOM     19 C19  LIG A   1      -1.359  -1.367  -1.314  1.00 20.00    -0.023 A 
ATOM     20 C20  LIG A   1      -1.240   0.035  -1.210  1.00 20.00    +0.027 A 
ATOM     21 C21  LIG A   1      -0.079   0.647  -1.695  1.00 20.00    -0.048 A 
ATOM     22 C22  LIG A   1      -2.214   0.892  -0.468  1.00 20.00    +0.194 C 
ATOM     23 O23  LIG A   1      -3.395   0.588  -0.362  1.00 20.00    -0.289 OA
ATOM     24 C24  LIG A   1      -1.780   2.164   0.144  1.00 20.00    +0.035 A 
ATOM     25 C25  LIG A   1      -2.215   3.349  -0.465  1.00 20.00    -0.050 A 
ATOM     26 C26  LIG A   1      -1.861   4.583   0.083  1.00 20.00    -0.061 A 
ATOM     27 C27  LIG A   1      -1.096   4.637   1.249  1.00 20.00    -0.061 A 
ATOM     28 C28  LIG A   1      -0.685   3.457   1.873  1.00 20.00    -0.049 A 
ATOM     29 C29  LIG A   1      -1.008   2.215   1.310  1.00 20.00    +0.051 A 
ATOM     30 C30  LIG A   1      -0.661   1.000   2.075  1.00 20.00    +0.261 C 
ATOM     31 O31  LIG A   1      -1.280   0.833   3.126  1.00 20.00    -0.269 OA
ATOM     32 N32  LIG A   1       0.334   0.119   1.607  1.00 20.00    -0.277 NA
ATOM     33 C33  LIG A   1       0.270  -1.226   2.215  1.00 20.00    +0.029 C 
ATOM     34 C34  LIG A   1      -0.471  -2.300   1.398  1.00 20.00    -0.034 C 
ATOM     35 C35  LIG A   1      -1.955  -2.020   1.058  1.00 20.00    -0.034 C 
ATOM     36 C36  LIG A   1      -2.297  -2.210  -0.449  1.00 20.00    +0.082 C 
ATOM     37 C37  LIG A   1      -3.763  -2.061  -0.822  1.00 20.00    +0.310 C 
ATOM     38 O38  LIG A   1      -4.206  -1.917  -1.953  1.00 20.00    -0.252 OA
ATOM     39 O39  LIG A   1      -4.610  -2.210   0.216  1.00 20.00    -0.481 OA
ATOM     40 C40  LIG A   1       1.460   0.597   0.909  1.00 20.00    +0.246 C 
ATOM     41 O41  LIG A   1       1.668   1.802   0.730  1.00 20.00    -0.273 OA
ATOM     42 C42  LIG A   1       2.519  -0.423   0.394  1.00 20.00    +0.088 C 
ATOM     43 N43  LIG A   1       3.555  -0.571   1.451  1.00 20.00    -0.320 NA
ATOM     44 H44  LIG A   1      -3.364  -0.783   0.425  1.00 20.00    +0.025 H 
ATOM     45 H45  LIG A   1      -2.429  -0.632   1.918  1.00 20.00    +0.025 H 
ATOM     46 H46  LIG A   1      -2.424  -2.154   1.007  1.00 20.00    +0.025 H 
ATOM     47 H47  LIG A   1      -1.054  -2.341  -1.189  1.00 20.00    +0.025 H 
ATOM     48 H48  LIG A   1      -2.237  -1.163  -1.744  1.00 20.00    +0.025 H 
ATOM     49 H49  LIG A   1      -0.529  -0.858  -2.000  1.00 20.00    +0.025 H 
ATOM     50 H50  LIG A   1      -1.961   1.148  -1.085  1.00 20.00    +0.031 H 
ATOM     51 H51  LIG A   1      -2.143   1.373   0.630  1.00 20.00    +0.031 H 
ATOM     52 H52  LIG A   1      -0.002   2.136   0.983  1.00 20.00    +0.060 H 
ATOM     53 H53  LIG A   1      -1.176   3.466  -0.408  1.00 20.00    +0.210 HD
ATOM     54 H54  LIG A   1       0.827   0.843  -1.653  1.00 20.00    +0.031 H 
ATOM     55 H55  LIG A   1       1.882   1.767  -0.629  1.00 20.00    +0.031 H 
ATOM     56 H56  LIG A   1       2.996  -0.608  -1.096  1.00 20.00    +0.025 H 
ATOM     57 H57  LIG A   1       2.551  -1.979  -0.090  1.00 20.00    +0.025 H 
ATOM     58 H58  LIG A   1       1.550  -1.538  -1.481  1.00 20.00    +0.025 H 
ATOM     59 H59  LIG A   1       3.142   0.736   1.063  1.00 20.00    +0.025 H 
ATOM     60 H60  LIG A   1       2.539  -0.607   2.030  1.00 20.00    +0.025 H 
ATOM     61 H61  LIG A   1       1.724   0.961   2.091  1.00 20.00    +0.025 H 
ATOM     62 H62  LIG A   1       4.965  -1.327  -0.648  1.00 20.00    +0.023 H 
ATOM     63 H63  LIG A   1       4.737  -0.804  -2.311  1.00 20.00    +0.023 H 
ATOM     64 H64  LIG A   1       3.659  -2.028  -1.615  1.00 20.00    +0.023 H 
ATOM     65 H65  LIG A   1       3.894   0.877  -0.697  1.00 20.00    +0.032 H 
ATOM     66 H66  LIG A   1       2.283   1.571  -2.091  1.00 20.00    +0.032 H 
ATOM     67 H67  LIG A   1       2.868   0.276  -3.092  1.00 20.00    +0.032 H 
ATOM     68 H68  LIG A   1       1.581  -2.067  -2.898  1.00 20.00    +0.063 H 
ATOM     69 H69  LIG A   1      -0.492  -3.154  -2.208  1.00 20.00    +0.063 H 
ATOM     70 H70  LIG A   1       0.077   1.718  -1.573  1.00 20.00    +0.063 H 
ATOM     71 H71  LIG A   1      -2.839   3.311  -1.356  1.00 20.00    +0.063 H 
ATOM     72 H72  LIG A   1      -2.197   5.503  -0.389  1.00 20.00    +0.062 H 
ATOM     73 H73  LIG A   1      -0.836   5.599   1.684  1.00 20.00    +0.062 H 
ATOM     74 H74  LIG A   1      -0.118   3.505   2.800  1.00 20.00    +0.063 H 
ATOM     75 H75  LIG A   1       1.281  -1.588   2.410  1.00 20.00    +0.050 H 
ATOM     76 H76  LIG A   1      -0.203  -1.170   3.203  1.00 20.00    +0.050 H 
ATOM     77 H77  LIG A   1      -0.442  -3.227   1.987  1.00 20.00    +0.029 H 
ATOM     78 H78  LIG A   1       0.115  -2.529   0.506  1.00 20.00    +0.029 H 
ATOM     79 H79  LIG A   1      -2.265  -1.033   1.406  1.00 20.00    +0.028 H 
ATOM     80 H80  LIG A   1      -2.565  -2.722   1.641  1.00 20.00    +0.028 H 
ATOM     81 H81  LIG A   1      -2.100  -3.272  -0.660  1.00 20.00    +0.047 H 
ATOM     82 H82  LIG A   1      -5.480  -1.983  -0.174  1.00 20.00    +0.296 HD
ATOM     83 H83  LIG A   1       2.050  -1.395   0.232  1.00 20.00    +0.057 H 
ATOM     84 H84  LIG A   1       3.129  -0.713   2.365  1.00 20.00    +0.119 HD
ATOM     85 H85  LIG A   1       4.060   0.316   1.531  1.00 20.00    +0.119 HD
ENDROOT
TORSDOF 0
