MODEL 1
REMARK VINA RESULT:   -10.042      0.000      0.000
REMARK INTER + INTRA:         -10.042
REMARK INTER:                 -10.042
REMARK INTRA:                   0.000
REMARK UNBOUND:                 0.000
ROOT
ATOM      1 N1   LIG A   1      25.290  27.649  15.509  1.00 20.00    -0.330 NA
ATOM      2 C2   LIG A   1      24.461  27.570  14.310  1.00 20.00    -0.008 C 
ATOM      3 C3   LIG A   1      23.527  26.362  14.367  1.00 20.00    -0.040 C 
ATOM      4 C4   LIG A   1      22.656  26.281  13.109  1.00 20.00    -0.039 C 
ATOM      5 C5   LIG A   1      21.648  25.128  13.154  1.00 20.00    -0.005 C 
ATOM      6 N6   LIG A   1      22.329  23.834  13.186  1.00 20.00    -0.317 NA
ATOM      7 C7   LIG A   1      21.361  22.733  13.257  1.00 20.00    -0.003 C 
ATOM      8 C8   LIG A   1      22.105  21.395  13.281  1.00 20.00    -0.023 C 
ATOM      9 C9   LIG A   1      21.156  20.215  13.490  1.00 20.00    +0.016 C 
ATOM     10 N10  LIG A   1      20.231  20.061  12.371  1.00 20.00    -0.385 NA
ATOM     11 C11  LIG A   1      20.512  19.200  11.308  1.00 20.00    +0.034 A 
ATOM     12 C12  LIG A   1      21.795  18.761  10.973  1.00 20.00    -0.038 A 
ATOM     13 C13  LIG A   1      22.017  17.940   9.856  1.00 20.00    -0.049 A 
ATOM     14 C14  LIG A   1      20.963  17.556   9.019  1.00 20.00    +0.017 A 
ATOM     15 C15  LIG A   1      21.199  16.686   7.868  1.00 20.00    +0.134 A 
ATOM     16 C16  LIG A   1      22.308  16.054   7.343  1.00 20.00    -0.015 A 
ATOM     17 C17  LIG A   1      21.866  15.328   6.209  1.00 20.00    -0.015 A 
ATOM     18 C18  LIG A   1      20.510  15.559   6.093  1.00 20.00    +0.134 A 
ATOM     19 C19  LIG A   1      19.471  15.112   5.168  1.00 20.00    +0.017 A 
ATOM     20 C20  LIG A   1      19.709  14.058   4.279  1.00 20.00    -0.049 A 
ATOM     21 C21  LIG A   1      18.714  13.622   3.391  1.00 20.00    -0.038 A 
ATOM     22 C22  LIG A   1      17.463  14.242   3.336  1.00 20.00    +0.034 A 
ATOM     23 N23  LIG A   1      16.413  13.816   2.531  1.00 20.00    -0.385 NA
ATOM     24 C24  LIG A   1      16.597  12.894   1.412  1.00 20.00    +0.016 C 
ATOM     25 C25  LIG A   1      16.406  11.442   1.857  1.00 20.00    -0.023 C 
ATOM     26 C26  LIG A   1      14.961  11.116   2.252  1.00 20.00    -0.003 C 
ATOM     27 N27  LIG A   1      14.084  11.121   1.074  1.00 20.00    -0.317 NA
ATOM     28 C28  LIG A   1      12.675  10.945   1.429  1.00 20.00    -0.005 C 
ATOM     29 C29  LIG A   1      12.024  12.188   2.051  1.00 20.00    -0.039 C 
ATOM     30 C30  LIG A   1      12.099  13.420   1.139  1.00 20.00    -0.040 C 
ATOM     31 C31  LIG A   1      11.494  14.678   1.767  1.00 20.00    -0.008 C 
ATOM     32 N32  LIG A   1      10.058  14.572   1.999  1.00 20.00    -0.330 NA
ATOM     33 C33  LIG A   1      17.222  15.276   4.251  1.00 20.00    -0.038 A 
ATOM     34 C34  LIG A   1      18.209  15.712   5.145  1.00 20.00    -0.049 A 
ATOM     35 O35  LIG A   1      20.108  16.389   7.100  1.00 20.00    -0.456 OA
ATOM     36 C36  LIG A   1      19.685  18.034   9.324  1.00 20.00    -0.049 A 
ATOM     37 C37  LIG A   1      19.469  18.853  10.440  1.00 20.00    -0.038 A 
ATOM     38 O38  LIG A   1      17.353  16.118   4.585  1.00 20.00    -0.251 OA
ATOM     39 C39  LIG A   1      18.216  16.427   5.391  1.00 20.00    +0.317 C 
ATOM     40 O40  LIG A   1      19.498  16.586   4.988  1.00 20.00    -0.480 OA
ATOM     41 C41  LIG A   1      18.032  16.574   6.895  1.00 20.00    +0.094 C 
ATOM     42 N42  LIG A   1      18.948  17.596   7.436  1.00 20.00    -0.306 NA
ATOM     43 C43  LIG A   1      18.964  17.566   8.904  1.00 20.00    +0.005 C 
ATOM     44 C44  LIG A   1      19.890  18.639   9.493  1.00 20.00    +0.003 C 
ATOM     45 S45  LIG A   1      19.332  20.323   9.091  1.00 20.00    -0.178 SA
ATOM     46 H46  LIG A   1      24.691  27.686  16.332  1.00 20.00    +0.118 HD
ATOM     47 H47  LIG A   1      25.830  26.788  15.601  1.00 20.00    +0.118 HD
ATOM     48 H48  LIG A   1      25.113  27.505  13.432  1.00 20.00    +0.043 H 
ATOM     49 H49  LIG A   1      23.882  28.495  14.219  1.00 20.00    +0.043 H 
ATOM     50 H50  LIG A   1      22.883  26.433  15.252  1.00 20.00    +0.028 H 
ATOM     51 H51  LIG A   1      24.120  25.445  14.472  1.00 20.00    +0.028 H 
ATOM     52 H52  LIG A   1      22.100  27.220  12.994  1.00 20.00    +0.028 H 
ATOM     53 H53  LIG A   1      23.294  26.184  12.222  1.00 20.00    +0.028 H 
ATOM     54 H54  LIG A   1      21.005  25.190  12.268  1.00 20.00    +0.043 H 
ATOM     55 H55  LIG A   1      21.010  25.244  14.038  1.00 20.00    +0.043 H 
ATOM     56 H56  LIG A   1      22.890  23.729  12.340  1.00 20.00    +0.122 HD
ATOM     57 H57  LIG A   1      20.686  22.771  12.393  1.00 20.00    +0.043 H 
ATOM     58 H58  LIG A   1      20.759  22.832  14.168  1.00 20.00    +0.043 H 
ATOM     59 H59  LIG A   1      22.675  21.274  12.353  1.00 20.00    +0.030 H 
ATOM     60 H60  LIG A   1      22.832  21.399  14.104  1.00 20.00    +0.030 H 
ATOM     61 H61  LIG A   1      21.719  19.292  13.676  1.00 20.00    +0.049 H 
ATOM     62 H62  LIG A   1      20.567  20.390  14.399  1.00 20.00    +0.049 H 
ATOM     63 H63  LIG A   1      19.263  19.970  12.674  1.00 20.00    +0.160 HD
ATOM     64 H64  LIG A   1      22.656  19.038  11.572  1.00 20.00    +0.064 H 
ATOM     65 H65  LIG A   1      23.034  17.614   9.653  1.00 20.00    +0.063 H 
ATOM     66 H66  LIG A   1      23.315  16.099   7.732  1.00 20.00    +0.066 H 
ATOM     67 H67  LIG A   1      22.469  14.713   5.555  1.00 20.00    +0.066 H 
ATOM     68 H68  LIG A   1      20.667  13.543   4.273  1.00 20.00    +0.063 H 
ATOM     69 H69  LIG A   1      18.948  12.783   2.743  1.00 20.00    +0.064 H 
ATOM     70 H70  LIG A   1      15.744  14.555   2.328  1.00 20.00    +0.160 HD
ATOM     71 H71  LIG A   1      15.866  13.144   0.635  1.00 20.00    +0.049 H 
ATOM     72 H72  LIG A   1      17.579  13.028   0.945  1.00 20.00    +0.049 H 
ATOM     73 H73  LIG A   1      16.723  10.776   1.046  1.00 20.00    +0.030 H 
ATOM     74 H74  LIG A   1      17.055  11.222   2.711  1.00 20.00    +0.030 H 
ATOM     75 H75  LIG A   1      14.939  10.121   2.711  1.00 20.00    +0.043 H 
ATOM     76 H76  LIG A   1      14.624  11.832   3.007  1.00 20.00    +0.043 H 
ATOM     77 H77  LIG A   1      14.364  10.352   0.464  1.00 20.00    +0.122 HD
ATOM     78 H78  LIG A   1      12.128  10.700   0.511  1.00 20.00    +0.043 H 
ATOM     79 H79  LIG A   1      12.551  10.086   2.099  1.00 20.00    +0.043 H 
ATOM     80 H80  LIG A   1      12.482  12.417   3.020  1.00 20.00    +0.028 H 
ATOM     81 H81  LIG A   1      10.974  11.945   2.257  1.00 20.00    +0.028 H 
ATOM     82 H82  LIG A   1      11.600  13.204   0.187  1.00 20.00    +0.028 H 
ATOM     83 H83  LIG A   1      13.147  13.639   0.902  1.00 20.00    +0.028 H 
ATOM     84 H84  LIG A   1      11.996  14.907   2.713  1.00 20.00    +0.043 H 
ATOM     85 H85  LIG A   1      11.672  15.528   1.099  1.00 20.00    +0.043 H 
ATOM     86 H86  LIG A   1       9.595  14.272   1.141  1.00 20.00    +0.118 HD
ATOM     87 H87  LIG A   1       9.872  13.849   2.691  1.00 20.00    +0.118 HD
ATOM     88 H88  LIG A   1      16.248  15.758   4.280  1.00 20.00    +0.064 H 
ATOM     89 H89  LIG A   1      17.973  16.526   5.827  1.00 20.00    +0.063 H 
ATOM     90 H90  LIG A   1      18.836  17.778   8.693  1.00 20.00    +0.063 H 
ATOM     91 H91  LIG A   1      18.462  19.216  10.626  1.00 20.00    +0.064 H 
ATOM     92 H92  LIG A   1      19.448  16.461   4.016  1.00 20.00    +0.296 HD
ATOM     93 H93  LIG A   1      16.997  16.877   7.084  1.00 20.00    +0.055 H 
ATOM     94 H94  LIG A   1      18.220  15.592   7.343  1.00 20.00    +0.055 H 
ATOM     95 H95  LIG A   1      19.883  17.408   7.065  1.00 20.00    +0.123 HD
ATOM     96 H96  LIG A   1      17.948  17.705   9.295  1.00 20.00    +0.044 H 
ATOM     97 H97  LIG A   1      19.315  16.585   9.245  1.00 20.00    +0.044 H 
ATOM     98 H98  LIG A   1      19.927  18.541  10.583  1.00 20.00    +0.039 H 
ATOM     99 H99  LIG A   1      20.910  18.511   9.113  1.00 20.00    +0.039 H 
ATOM    100 H100 LIG A   1      19.101  20.069   7.792  1.00 20.00    +0.102 HD
ENDROOT
TORSDOF 0
                                                                                                       
ENDMDL
MODEL 2
REMARK VINA RESULT:   -10.039      5.576     14.719
REMARK INTER + INTRA:         -10.039
REMARK INTER:                 -10.039
REMARK INTRA:                   0.000
REMARK UNBOUND:                 0.000
ROOT
ATOM      1 N1   LIG A   1      23.033  11.174   4.231  1.00 20.00    -0.330 NA
ATOM      2 C2   LIG A   1      22.281  11.526   5.431  1.00 20.00    -0.008 C 
ATOM      3 C3   LIG A   1      21.692  12.931   5.320  1.00 20.00    -0.040 C 
ATOM      4 C4   LIG A   1      20.902  13.299   6.580  1.00 20.00    -0.039 C 
ATOM      5 C5   LIG A   1      20.228  14.671   6.483  1.00 20.00    -0.005 C 
ATOM      6 N6   LIG A   1      21.221  15.740   6.375  1.00 20.00    -0.317 NA
ATOM      7 C7   LIG A   1      20.571  17.050   6.255  1.00 20.00    -0.003 C 
ATOM      8 C8   LIG A   1      21.637  18.145   6.151  1.00 20.00    -0.023 C 
ATOM      9 C9   LIG A   1      21.023  19.520   5.889  1.00 20.00    +0.016 C 
ATOM     10 N10  LIG A   1      20.196  19.964   7.007  1.00 20.00    -0.385 NA
ATOM     11 C11  LIG A   1      20.716  20.773   8.020  1.00 20.00    +0.034 A 
ATOM     12 C12  LIG A   1      22.077  20.879   8.319  1.00 20.00    -0.038 A 
ATOM     13 C13  LIG A   1      22.531  21.667   9.388  1.00 20.00    -0.049 A 
ATOM     14 C14  LIG A   1      21.633  22.353  10.213  1.00 20.00    +0.017 A 
ATOM     15 C15  LIG A   1      22.114  23.186  11.314  1.00 20.00    +0.134 A 
ATOM     16 C16  LIG A   1      23.361  23.533  11.793  1.00 20.00    -0.015 A 
ATOM     17 C17  LIG A   1      23.151  24.403  12.891  1.00 20.00    -0.015 A 
ATOM     18 C18  LIG A   1      21.784  24.541  13.033  1.00 20.00    +0.134 A 
ATOM     19 C19  LIG A   1      20.919  25.288  13.942  1.00 20.00    +0.017 A 
ATOM     20 C20  LIG A   1      21.443  26.285  14.771  1.00 20.00    -0.049 A 
ATOM     21 C21  LIG A   1      20.617  27.009  15.644  1.00 20.00    -0.038 A 
ATOM     22 C22  LIG A   1      19.250  26.741  15.744  1.00 20.00    +0.034 A 
ATOM     23 N23  LIG A   1      18.366  27.465  16.537  1.00 20.00    -0.385 NA
ATOM     24 C24  LIG A   1      18.810  28.360  17.602  1.00 20.00    +0.016 C 
ATOM     25 C25  LIG A   1      18.993  29.788  17.082  1.00 20.00    -0.023 C 
ATOM     26 C26  LIG A   1      17.674  30.461  16.684  1.00 20.00    -0.003 C 
ATOM     27 N27  LIG A   1      16.853  30.743  17.870  1.00 20.00    -0.317 NA
ATOM     28 C28  LIG A   1      15.530  31.263  17.520  1.00 20.00    -0.005 C 
ATOM     29 C29  LIG A   1      14.564  30.204  16.971  1.00 20.00    -0.039 C 
ATOM     30 C30  LIG A   1      14.337  29.042  17.947  1.00 20.00    -0.040 C 
ATOM     31 C31  LIG A   1      13.412  27.955  17.394  1.00 20.00    -0.008 C 
ATOM     32 N32  LIG A   1      12.048  28.421  17.170  1.00 20.00    -0.330 NA
ATOM     33 C33  LIG A   1      18.727  25.762  14.889  1.00 20.00    -0.038 A 
ATOM     34 C34  LIG A   1      19.545  25.040  14.010  1.00 20.00    -0.049 A 
ATOM     35 O35  LIG A   1      21.156  23.796  12.075  1.00 20.00    -0.456 OA
ATOM     36 C36  LIG A   1      20.268  22.211   9.947  1.00 20.00    -0.049 A 
ATOM     37 C37  LIG A   1      19.820  21.423   8.879  1.00 20.00    -0.038 A 
ATOM     38 O38  LIG A   1      18.626  24.900  14.599  1.00 20.00    -0.251 OA
ATOM     39 C39  LIG A   1      19.360  24.337  13.802  1.00 20.00    +0.317 C 
ATOM     40 O40  LIG A   1      20.565  23.868  14.201  1.00 20.00    -0.480 OA
ATOM     41 C41  LIG A   1      19.109  24.169  12.310  1.00 20.00    +0.094 C 
ATOM     42 N42  LIG A   1      19.715  22.919  11.815  1.00 20.00    -0.306 NA
ATOM     43 C43  LIG A   1      19.703  22.871  10.348  1.00 20.00    +0.005 C 
ATOM     44 C44  LIG A   1      20.305  21.566   9.808  1.00 20.00    +0.003 C 
ATOM     45 S45  LIG A   1      19.337  20.108  10.305  1.00 20.00    -0.178 SA
ATOM     46 H46  LIG A   1      22.425  11.255   3.417  1.00 20.00    +0.118 HD
ATOM     47 H47  LIG A   1      23.776  11.859   4.087  1.00 20.00    +0.118 HD
ATOM     48 H48  LIG A   1      22.947  11.461   6.299  1.00 20.00    +0.043 H 
ATOM     49 H49  LIG A   1      21.483  10.790   5.577  1.00 20.00    +0.043 H 
ATOM     50 H50  LIG A   1      21.031  12.988   4.446  1.00 20.00    +0.028 H 
ATOM     51 H51  LIG A   1      22.501  13.655   5.160  1.00 20.00    +0.028 H 
ATOM     52 H52  LIG A   1      20.124  12.544   6.750  1.00 20.00    +0.028 H 
ATOM     53 H53  LIG A   1      21.563  13.270   7.454  1.00 20.00    +0.028 H 
ATOM     54 H54  LIG A   1      19.612  14.822   7.377  1.00 20.00    +0.043 H 
ATOM     55 H55  LIG A   1      19.561  14.682   5.612  1.00 20.00    +0.043 H 
ATOM     56 H56  LIG A   1      21.810  15.736   7.209  1.00 20.00    +0.122 HD
ATOM     57 H57  LIG A   1      19.930  17.232   7.126  1.00 20.00    +0.043 H 
ATOM     58 H58  LIG A   1      19.943  17.067   5.357  1.00 20.00    +0.043 H 
ATOM     59 H59  LIG A   1      22.241  18.158   7.066  1.00 20.00    +0.030 H 
ATOM     60 H60  LIG A   1      22.318  17.911   5.323  1.00 20.00    +0.030 H 
ATOM     61 H61  LIG A   1      21.802  20.253   5.649  1.00 20.00    +0.049 H 
ATOM     62 H62  LIG A   1      20.388  19.460   4.997  1.00 20.00    +0.049 H 
ATOM     63 H63  LIG A   1      19.279  20.289   6.710  1.00 20.00    +0.160 HD
ATOM     64 H64  LIG A   1      22.822  20.357   7.727  1.00 20.00    +0.064 H 
ATOM     65 H65  LIG A   1      23.602  21.725   9.563  1.00 20.00    +0.063 H 
ATOM     66 H66  LIG A   1      24.313  23.207  11.398  1.00 20.00    +0.066 H 
ATOM     67 H67  LIG A   1      23.908  24.871  13.505  1.00 20.00    +0.066 H 
ATOM     68 H68  LIG A   1      22.502  26.532  14.741  1.00 20.00    +0.063 H 
ATOM     69 H69  LIG A   1      21.077  27.789  16.244  1.00 20.00    +0.064 H 
ATOM     70 H70  LIG A   1      17.533  26.937  16.785  1.00 20.00    +0.160 HD
ATOM     71 H71  LIG A   1      18.057  28.348  18.399  1.00 20.00    +0.049 H 
ATOM     72 H72  LIG A   1      19.734  27.998  18.066  1.00 20.00    +0.049 H 
ATOM     73 H73  LIG A   1      19.491  30.388  17.853  1.00 20.00    +0.030 H 
ATOM     74 H74  LIG A   1      19.657  29.790  16.211  1.00 20.00    +0.030 H 
ATOM     75 H75  LIG A   1      17.900  31.403  16.173  1.00 20.00    +0.043 H 
ATOM     76 H76  LIG A   1      17.144  29.821  15.972  1.00 20.00    +0.043 H 
ATOM     77 H77  LIG A   1      17.337  31.441  18.434  1.00 20.00    +0.122 HD
ATOM     78 H78  LIG A   1      15.088  31.686  18.428  1.00 20.00    +0.043 H 
ATOM     79 H79  LIG A   1      15.618  32.090  16.805  1.00 20.00    +0.043 H 
ATOM     80 H80  LIG A   1      14.924  29.816  16.012  1.00 20.00    +0.028 H 
ATOM     81 H81  LIG A   1      13.609  30.702  16.763  1.00 20.00    +0.028 H 
ATOM     82 H82  LIG A   1      13.934  29.427  18.891  1.00 20.00    +0.028 H 
ATOM     83 H83  LIG A   1      15.297  28.569  18.185  1.00 20.00    +0.028 H 
ATOM     84 H84  LIG A   1      13.814  27.557  16.456  1.00 20.00    +0.043 H 
ATOM     85 H85  LIG A   1      13.378  27.122  18.104  1.00 20.00    +0.043 H 
ATOM     86 H86  LIG A   1      11.698  28.873  18.015  1.00 20.00    +0.118 HD
ATOM     87 H87  LIG A   1      12.039  29.133  16.443  1.00 20.00    +0.118 HD
ATOM     88 H88  LIG A   1      17.661  25.550  14.895  1.00 20.00    +0.064 H 
ATOM     89 H89  LIG A   1      19.090  24.284  13.375  1.00 20.00    +0.063 H 
ATOM     90 H90  LIG A   1      19.530  22.710  10.571  1.00 20.00    +0.063 H 
ATOM     91 H91  LIG A   1      18.749  21.326   8.722  1.00 20.00    +0.064 H 
ATOM     92 H92  LIG A   1      20.573  24.050  15.165  1.00 20.00    +0.296 HD
ATOM     93 H93  LIG A   1      18.026  24.138  12.148  1.00 20.00    +0.055 H 
ATOM     94 H94  LIG A   1      19.535  25.045  11.809  1.00 20.00    +0.055 H 
ATOM     95 H95  LIG A   1      20.675  22.874  12.167  1.00 20.00    +0.123 HD
ATOM     96 H96  LIG A   1      18.677  22.983   9.975  1.00 20.00    +0.044 H 
ATOM     97 H97  LIG A   1      20.290  23.708   9.951  1.00 20.00    +0.044 H 
ATOM     98 H98  LIG A   1      20.341  21.597   8.715  1.00 20.00    +0.039 H 
ATOM     99 H99  LIG A   1      21.331  21.442  10.171  1.00 20.00    +0.039 H 
ATOM    100 H100 LIG A   1      19.211  20.476  11.591  1.00 20.00    +0.102 HD
ENDROOT
TORSDOF 0
                                                                                                       
ENDMDL
MODEL 3
REMARK VINA RESULT:    -9.608      2.886      4.842
REMARK INTER + INTRA:          -9.608
REMARK INTER:                  -9.608
REMARK INTRA:                   0.000
REMARK UNBOUND:                 0.000
ROOT
ATOM      1 N1   LIG A   1      22.607  32.559  17.684  1.00 20.00    -0.330 NA
ATOM      2 C2   LIG A   1      21.843  32.144  16.511  1.00 20.00    -0.008 C 
ATOM      3 C3   LIG A   1      21.491  30.660  16.581  1.00 20.00    -0.040 C 
ATOM      4 C4   LIG A   1      20.688  30.225  15.351  1.00 20.00    -0.039 C 
ATOM      5 C5   LIG A   1      20.246  28.760  15.413  1.00 20.00    -0.005 C 
ATOM      6 N6   LIG A   1      21.400  27.861  15.405  1.00 20.00    -0.317 NA
ATOM      7 C7   LIG A   1      20.974  26.459  15.492  1.00 20.00    -0.003 C 
ATOM      8 C8   LIG A   1      22.203  25.546  15.475  1.00 20.00    -0.023 C 
ATOM      9 C9   LIG A   1      21.832  24.080  15.698  1.00 20.00    +0.016 C 
ATOM     10 N10  LIG A   1      21.013  23.558  14.607  1.00 20.00    -0.385 NA
ATOM     11 C11  LIG A   1      21.587  22.889  13.524  1.00 20.00    +0.034 A 
ATOM     12 C12  LIG A   1      22.925  23.016  13.142  1.00 20.00    -0.038 A 
ATOM     13 C13  LIG A   1      23.426  22.359  12.008  1.00 20.00    -0.049 A 
ATOM     14 C14  LIG A   1      22.595  21.574  11.200  1.00 20.00    +0.017 A 
ATOM     15 C15  LIG A   1      23.128  20.878  10.031  1.00 20.00    +0.134 A 
ATOM     16 C16  LIG A   1      24.380  20.757   9.462  1.00 20.00    -0.015 A 
ATOM     17 C17  LIG A   1      24.238  19.913   8.333  1.00 20.00    -0.015 A 
ATOM     18 C18  LIG A   1      22.903  19.565   8.263  1.00 20.00    +0.134 A 
ATOM     19 C19  LIG A   1      22.109  18.729   7.366  1.00 20.00    +0.017 A 
ATOM     20 C20  LIG A   1      22.728  17.866   6.456  1.00 20.00    -0.049 A 
ATOM     21 C21  LIG A   1      21.971  17.058   5.595  1.00 20.00    -0.038 A 
ATOM     22 C22  LIG A   1      20.575  17.108   5.588  1.00 20.00    +0.034 A 
ATOM     23 N23  LIG A   1      19.766  16.287   4.811  1.00 20.00    -0.385 NA
ATOM     24 C24  LIG A   1      20.274  15.521   3.675  1.00 20.00    +0.016 C 
ATOM     25 C25  LIG A   1      20.713  14.120   4.106  1.00 20.00    -0.023 C 
ATOM     26 C26  LIG A   1      19.546  13.228   4.542  1.00 20.00    -0.003 C 
ATOM     27 N27  LIG A   1      18.704  12.870   3.393  1.00 20.00    -0.317 NA
ATOM     28 C28  LIG A   1      17.505  12.130   3.790  1.00 20.00    -0.005 C 
ATOM     29 C29  LIG A   1      16.423  12.995   4.450  1.00 20.00    -0.039 C 
ATOM     30 C30  LIG A   1      15.952  14.147   3.553  1.00 20.00    -0.040 C 
ATOM     31 C31  LIG A   1      14.905  15.045   4.216  1.00 20.00    -0.008 C 
ATOM     32 N32  LIG A   1      13.649  14.358   4.492  1.00 20.00    -0.330 NA
ATOM     33 C33  LIG A   1      19.962  17.952   6.524  1.00 20.00    -0.038 A 
ATOM     34 C34  LIG A   1      20.711  18.756   7.391  1.00 20.00    -0.049 A 
ATOM     35 O35  LIG A   1      22.230  20.156   9.294  1.00 20.00    -0.456 OA
ATOM     36 C36  LIG A   1      21.245  21.484  11.552  1.00 20.00    -0.049 A 
ATOM     37 C37  LIG A   1      20.750  22.142  12.685  1.00 20.00    -0.038 A 
ATOM     38 O38  LIG A   1      19.746  18.773   6.865  1.00 20.00    -0.251 OA
ATOM     39 C39  LIG A   1      20.432  19.411   7.647  1.00 20.00    +0.317 C 
ATOM     40 O40  LIG A   1      21.520  20.083   7.205  1.00 20.00    -0.480 OA
ATOM     41 C41  LIG A   1      20.256  19.470   9.158  1.00 20.00    +0.094 C 
ATOM     42 N42  LIG A   1      20.689  20.779   9.684  1.00 20.00    -0.306 NA
ATOM     43 C43  LIG A   1      20.766  20.759  11.149  1.00 20.00    +0.005 C 
ATOM     44 C44  LIG A   1      21.189  22.120  11.723  1.00 20.00    +0.003 C 
ATOM     45 S45  LIG A   1      19.974  23.424  11.362  1.00 20.00    -0.178 SA
ATOM     46 H46  LIG A   1      22.074  32.347  18.526  1.00 20.00    +0.118 HD
ATOM     47 H47  LIG A   1      23.456  31.997  17.747  1.00 20.00    +0.118 HD
ATOM     48 H48  LIG A   1      22.432  32.353  15.612  1.00 20.00    +0.043 H 
ATOM     49 H49  LIG A   1      20.931  32.749  16.452  1.00 20.00    +0.043 H 
ATOM     50 H50  LIG A   1      20.906  30.459  17.487  1.00 20.00    +0.028 H 
ATOM     51 H51  LIG A   1      22.412  30.068  16.655  1.00 20.00    +0.028 H 
ATOM     52 H52  LIG A   1      19.791  30.852  15.267  1.00 20.00    +0.028 H 
ATOM     53 H53  LIG A   1      21.278  30.399  14.443  1.00 20.00    +0.028 H 
ATOM     54 H54  LIG A   1      19.604  28.551  14.549  1.00 20.00    +0.043 H 
ATOM     55 H55  LIG A   1      19.648  28.604  16.318  1.00 20.00    +0.043 H 
ATOM     56 H56  LIG A   1      21.925  27.996  14.541  1.00 20.00    +0.122 HD
ATOM     57 H57  LIG A   1      20.313  26.215  14.652  1.00 20.00    +0.043 H 
ATOM     58 H58  LIG A   1      20.416  26.302  16.423  1.00 20.00    +0.043 H 
ATOM     59 H59  LIG A   1      22.740  25.670  14.527  1.00 20.00    +0.030 H 
ATOM     60 H60  LIG A   1      22.892  25.850  16.274  1.00 20.00    +0.030 H 
ATOM     61 H61  LIG A   1      22.731  23.472  15.854  1.00 20.00    +0.049 H 
ATOM     62 H62  LIG A   1      21.255  23.998  16.628  1.00 20.00    +0.049 H 
ATOM     63 H63  LIG A   1      20.180  23.077  14.940  1.00 20.00    +0.160 HD
ATOM     64 H64  LIG A   1      23.616  23.624  13.717  1.00 20.00    +0.064 H 
ATOM     65 H65  LIG A   1      24.480  22.480  11.768  1.00 20.00    +0.063 H 
ATOM     66 H66  LIG A   1      25.292  21.214   9.819  1.00 20.00    +0.066 H 
ATOM     67 H67  LIG A   1      25.017  19.601   7.652  1.00 20.00    +0.066 H 
ATOM     68 H68  LIG A   1      23.813  17.791   6.412  1.00 20.00    +0.063 H 
ATOM     69 H69  LIG A   1      22.507  16.389   4.928  1.00 20.00    +0.064 H 
ATOM     70 H70  LIG A   1      18.845  16.684   4.640  1.00 20.00    +0.160 HD
ATOM     71 H71  LIG A   1      19.478  15.447   2.925  1.00 20.00    +0.049 H 
ATOM     72 H72  LIG A   1      21.097  16.047   3.179  1.00 20.00    +0.049 H 
ATOM     73 H73  LIG A   1      21.248  13.642   3.276  1.00 20.00    +0.030 H 
ATOM     74 H74  LIG A   1      21.425  14.187   4.936  1.00 20.00    +0.030 H 
ATOM     75 H75  LIG A   1      19.951  12.312   4.989  1.00 20.00    +0.043 H 
ATOM     76 H76  LIG A   1      18.970  13.742   5.318  1.00 20.00    +0.043 H 
ATOM     77 H77  LIG A   1      19.254  12.283   2.764  1.00 20.00    +0.122 HD
ATOM     78 H78  LIG A   1      17.076  11.681   2.887  1.00 20.00    +0.043 H 
ATOM     79 H79  LIG A   1      17.769  11.296   4.453  1.00 20.00    +0.043 H 
ATOM     80 H80  LIG A   1      16.779  13.393   5.406  1.00 20.00    +0.028 H 
ATOM     81 H81  LIG A   1      15.574  12.341   4.685  1.00 20.00    +0.028 H 
ATOM     82 H82  LIG A   1      15.553  13.744   2.614  1.00 20.00    +0.028 H 
ATOM     83 H83  LIG A   1      16.808  14.778   3.285  1.00 20.00    +0.028 H 
ATOM     84 H84  LIG A   1      15.301  15.462   5.149  1.00 20.00    +0.043 H 
ATOM     85 H85  LIG A   1      14.695  15.893   3.554  1.00 20.00    +0.043 H 
ATOM     86 H86  LIG A   1      13.321  13.893   3.646  1.00 20.00    +0.118 HD
ATOM     87 H87  LIG A   1      13.801  13.623   5.180  1.00 20.00    +0.118 HD
ATOM     88 H88  LIG A   1      18.877  17.989   6.591  1.00 20.00    +0.064 H 
ATOM     89 H89  LIG A   1      20.186  19.401   8.092  1.00 20.00    +0.063 H 
ATOM     90 H90  LIG A   1      20.556  20.900  10.946  1.00 20.00    +0.063 H 
ATOM     91 H91  LIG A   1      19.690  22.058  12.909  1.00 20.00    +0.064 H 
ATOM     92 H92  LIG A   1      21.493  19.948   6.234  1.00 20.00    +0.296 HD
ATOM     93 H93  LIG A   1      19.196  19.320   9.384  1.00 20.00    +0.055 H 
ATOM     94 H94  LIG A   1      20.847  18.653   9.586  1.00 20.00    +0.055 H 
ATOM     95 H95  LIG A   1      21.605  20.992   9.280  1.00 20.00    +0.123 HD
ATOM     96 H96  LIG A   1      19.798  20.468  11.574  1.00 20.00    +0.044 H 
ATOM     97 H97  LIG A   1      21.502  20.011  11.466  1.00 20.00    +0.044 H 
ATOM     98 H98  LIG A   1      21.301  22.046  12.809  1.00 20.00    +0.039 H 
ATOM     99 H99  LIG A   1      22.157  22.422  11.308  1.00 20.00    +0.039 H 
ATOM    100 H100 LIG A   1      19.822  23.096  10.067  1.00 20.00    +0.102 HD
ENDROOT
TORSDOF 0
                                                                                                       
ENDMDL
MODEL 4
REMARK VINA RESULT:    -9.536      1.655      1.848
REMARK INTER + INTRA:          -9.536
REMARK INTER:                  -9.536
REMARK INTRA:                   0.000
REMARK UNBOUND:                 0.000
ROOT
ATOM      1 N1   LIG A   1      23.766  29.577  16.080  1.00 20.00    -0.330 NA
ATOM      2 C2   LIG A   1      22.680  29.242  15.165  1.00 20.00    -0.008 C 
ATOM      3 C3   LIG A   1      22.342  27.753  15.234  1.00 20.00    -0.040 C 
ATOM      4 C4   LIG A   1      21.200  27.403  14.274  1.00 20.00    -0.039 C 
ATOM      5 C5   LIG A   1      20.775  25.934  14.363  1.00 20.00    -0.005 C 
ATOM      6 N6   LIG A   1      21.859  25.045  13.947  1.00 20.00    -0.317 NA
ATOM      7 C7   LIG A   1      21.457  23.638  14.060  1.00 20.00    -0.003 C 
ATOM      8 C8   LIG A   1      22.610  22.736  13.611  1.00 20.00    -0.023 C 
ATOM      9 C9   LIG A   1      22.301  21.256  13.832  1.00 20.00    +0.016 C 
ATOM     10 N10  LIG A   1      21.185  20.808  13.004  1.00 20.00    -0.385 NA
ATOM     11 C11  LIG A   1      21.397  20.221  11.755  1.00 20.00    +0.034 A 
ATOM     12 C12  LIG A   1      22.560  20.383  10.999  1.00 20.00    -0.038 A 
ATOM     13 C13  LIG A   1      22.689  19.811   9.723  1.00 20.00    -0.049 A 
ATOM     14 C14  LIG A   1      21.642  19.081   9.149  1.00 20.00    +0.017 A 
ATOM     15 C15  LIG A   1      21.789  18.473   7.828  1.00 20.00    +0.134 A 
ATOM     16 C16  LIG A   1      22.811  18.401   6.903  1.00 20.00    -0.015 A 
ATOM     17 C17  LIG A   1      22.323  17.639   5.813  1.00 20.00    -0.015 A 
ATOM     18 C18  LIG A   1      21.024  17.288   6.123  1.00 20.00    +0.134 A 
ATOM     19 C19  LIG A   1      19.985  16.513   5.449  1.00 20.00    +0.017 A 
ATOM     20 C20  LIG A   1      20.290  15.721   4.338  1.00 20.00    -0.049 A 
ATOM     21 C21  LIG A   1      19.296  14.971   3.689  1.00 20.00    -0.038 A 
ATOM     22 C22  LIG A   1      17.964  15.013   4.105  1.00 20.00    +0.034 A 
ATOM     23 N23  LIG A   1      16.946  14.244   3.551  1.00 20.00    -0.385 NA
ATOM     24 C24  LIG A   1      17.078  13.565   2.264  1.00 20.00    +0.016 C 
ATOM     25 C25  LIG A   1      17.605  12.139   2.445  1.00 20.00    -0.023 C 
ATOM     26 C26  LIG A   1      16.608  11.211   3.148  1.00 20.00    -0.003 C 
ATOM     27 N27  LIG A   1      15.455  10.930   2.283  1.00 20.00    -0.317 NA
ATOM     28 C28  LIG A   1      14.419  10.156   2.969  1.00 20.00    -0.005 C 
ATOM     29 C29  LIG A   1      13.598  10.965   3.981  1.00 20.00    -0.039 C 
ATOM     30 C30  LIG A   1      12.898  12.176   3.350  1.00 20.00    -0.040 C 
ATOM     31 C31  LIG A   1      12.112  13.018   4.357  1.00 20.00    -0.008 C 
ATOM     32 N32  LIG A   1      10.986  12.305   4.949  1.00 20.00    -0.330 NA
ATOM     33 C33  LIG A   1      17.672  15.784   5.238  1.00 20.00    -0.038 A 
ATOM     34 C34  LIG A   1      18.659  16.529   5.894  1.00 20.00    -0.049 A 
ATOM     35 O35  LIG A   1      20.700  17.800   7.347  1.00 20.00    -0.456 OA
ATOM     36 C36  LIG A   1      20.458  18.957   9.883  1.00 20.00    -0.049 A 
ATOM     37 C37  LIG A   1      20.336  19.530  11.156  1.00 20.00    -0.038 A 
ATOM     38 O38  LIG A   1      17.581  16.578   5.684  1.00 20.00    -0.251 OA
ATOM     39 C39  LIG A   1      18.480  17.162   6.267  1.00 20.00    +0.317 C 
ATOM     40 O40  LIG A   1      19.395  17.872   5.567  1.00 20.00    -0.480 OA
ATOM     41 C41  LIG A   1      18.766  17.113   7.762  1.00 20.00    +0.094 C 
ATOM     42 N42  LIG A   1      19.356  18.384   8.223  1.00 20.00    -0.306 NA
ATOM     43 C43  LIG A   1      19.869  18.260   9.593  1.00 20.00    +0.005 C 
ATOM     44 C44  LIG A   1      20.466  19.579  10.106  1.00 20.00    +0.003 C 
ATOM     45 S45  LIG A   1      19.218  20.898  10.219  1.00 20.00    -0.178 SA
ATOM     46 H46  LIG A   1      23.507  29.301  17.027  1.00 20.00    +0.118 HD
ATOM     47 H47  LIG A   1      24.587  29.017  15.847  1.00 20.00    +0.118 HD
ATOM     48 H48  LIG A   1      22.975  29.518  14.147  1.00 20.00    +0.043 H 
ATOM     49 H49  LIG A   1      21.801  29.843  15.424  1.00 20.00    +0.043 H 
ATOM     50 H50  LIG A   1      22.052  27.485  16.257  1.00 20.00    +0.028 H 
ATOM     51 H51  LIG A   1      23.233  27.164  14.986  1.00 20.00    +0.028 H 
ATOM     52 H52  LIG A   1      20.329  28.029  14.507  1.00 20.00    +0.028 H 
ATOM     53 H53  LIG A   1      21.493  27.644  13.245  1.00 20.00    +0.028 H 
ATOM     54 H54  LIG A   1      19.900  25.783  13.720  1.00 20.00    +0.043 H 
ATOM     55 H55  LIG A   1      20.473  25.710  15.393  1.00 20.00    +0.043 H 
ATOM     56 H56  LIG A   1      22.103  25.244  12.976  1.00 20.00    +0.122 HD
ATOM     57 H57  LIG A   1      20.571  23.450  13.441  1.00 20.00    +0.043 H 
ATOM     58 H58  LIG A   1      21.202  23.412  15.102  1.00 20.00    +0.043 H 
ATOM     59 H59  LIG A   1      22.841  22.931  12.557  1.00 20.00    +0.030 H 
ATOM     60 H60  LIG A   1      23.512  22.986  14.186  1.00 20.00    +0.030 H 
ATOM     61 H61  LIG A   1      23.195  20.643  13.668  1.00 20.00    +0.049 H 
ATOM     62 H62  LIG A   1      22.028  21.104  14.884  1.00 20.00    +0.049 H 
ATOM     63 H63  LIG A   1      20.482  20.299  13.536  1.00 20.00    +0.160 HD
ATOM     64 H64  LIG A   1      23.401  20.953  11.381  1.00 20.00    +0.064 H 
ATOM     65 H65  LIG A   1      23.623  19.956   9.188  1.00 20.00    +0.063 H 
ATOM     66 H66  LIG A   1      23.795  18.837   7.001  1.00 20.00    +0.066 H 
ATOM     67 H67  LIG A   1      22.858  17.380   4.909  1.00 20.00    +0.066 H 
ATOM     68 H68  LIG A   1      21.309  15.656   3.965  1.00 20.00    +0.063 H 
ATOM     69 H69  LIG A   1      19.598  14.355   2.847  1.00 20.00    +0.064 H 
ATOM     70 H70  LIG A   1      16.023  14.647   3.692  1.00 20.00    +0.160 HD
ATOM     71 H71  LIG A   1      16.093  13.539   1.784  1.00 20.00    +0.049 H 
ATOM     72 H72  LIG A   1      17.723  14.130   1.582  1.00 20.00    +0.049 H 
ATOM     73 H73  LIG A   1      17.859  11.725   1.462  1.00 20.00    +0.030 H 
ATOM     74 H74  LIG A   1      18.534  12.151   3.026  1.00 20.00    +0.030 H 
ATOM     75 H75  LIG A   1      17.114  10.268   3.387  1.00 20.00    +0.043 H 
ATOM     76 H76  LIG A   1      16.299  11.665   4.095  1.00 20.00    +0.043 H 
ATOM     77 H77  LIG A   1      15.782  10.394   1.479  1.00 20.00    +0.122 HD
ATOM     78 H78  LIG A   1      13.733   9.770   2.207  1.00 20.00    +0.043 H 
ATOM     79 H79  LIG A   1      14.857   9.280   3.462  1.00 20.00    +0.043 H 
ATOM     80 H80  LIG A   1      14.230  11.297   4.812  1.00 20.00    +0.028 H 
ATOM     81 H81  LIG A   1      12.849  10.291   4.415  1.00 20.00    +0.028 H 
ATOM     82 H82  LIG A   1      12.230  11.838   2.548  1.00 20.00    +0.028 H 
ATOM     83 H83  LIG A   1      13.644  12.829   2.882  1.00 20.00    +0.028 H 
ATOM     84 H84  LIG A   1      12.775  13.370   5.155  1.00 20.00    +0.043 H 
ATOM     85 H85  LIG A   1      11.726  13.909   3.850  1.00 20.00    +0.043 H 
ATOM     86 H86  LIG A   1      10.412  11.900   4.211  1.00 20.00    +0.118 HD
ATOM     87 H87  LIG A   1      11.325  11.524   5.507  1.00 20.00    +0.118 HD
ATOM     88 H88  LIG A   1      16.658  15.810   5.630  1.00 20.00    +0.064 H 
ATOM     89 H89  LIG A   1      18.378  17.120   6.763  1.00 20.00    +0.063 H 
ATOM     90 H90  LIG A   1      19.610  18.414   9.472  1.00 20.00    +0.063 H 
ATOM     91 H91  LIG A   1      19.390  19.424  11.681  1.00 20.00    +0.064 H 
ATOM     92 H92  LIG A   1      19.077  17.806   4.642  1.00 20.00    +0.296 HD
ATOM     93 H93  LIG A   1      17.820  16.940   8.284  1.00 20.00    +0.055 H 
ATOM     94 H94  LIG A   1      19.445  16.271   7.935  1.00 20.00    +0.055 H 
ATOM     95 H95  LIG A   1      20.113  18.631   7.579  1.00 20.00    +0.123 HD
ATOM     96 H96  LIG A   1      19.068  17.933  10.268  1.00 20.00    +0.044 H 
ATOM     97 H97  LIG A   1      20.655  17.496   9.621  1.00 20.00    +0.044 H 
ATOM     98 H98  LIG A   1      20.897  19.429  11.101  1.00 20.00    +0.039 H 
ATOM     99 H99  LIG A   1      21.269  19.917   9.443  1.00 20.00    +0.039 H 
ATOM    100 H100 LIG A   1      18.681  20.663   9.010  1.00 20.00    +0.102 HD
ENDROOT
TORSDOF 0
                                                                                                       
ENDMDL
MODEL 5
REMARK VINA RESULT:    -9.390      4.609     14.378
REMARK INTER + INTRA:          -9.390
REMARK INTER:                  -9.390
REMARK INTRA:                   0.000
REMARK UNBOUND:                 0.000
ROOT
ATOM      1 N1   LIG A   1      20.627  10.097   3.040  1.00 20.00    -0.330 NA
ATOM      2 C2   LIG A   1      19.636  10.886   3.763  1.00 20.00    -0.008 C 
ATOM      3 C3   LIG A   1      19.989  12.372   3.736  1.00 20.00    -0.040 C 
ATOM      4 C4   LIG A   1      18.946  13.200   4.494  1.00 20.00    -0.039 C 
ATOM      5 C5   LIG A   1      19.217  14.706   4.429  1.00 20.00    -0.005 C 
ATOM      6 N6   LIG A   1      20.475  15.045   5.093  1.00 20.00    -0.317 NA
ATOM      7 C7   LIG A   1      20.744  16.485   5.005  1.00 20.00    -0.003 C 
ATOM      8 C8   LIG A   1      22.063  16.806   5.715  1.00 20.00    -0.023 C 
ATOM      9 C9   LIG A   1      22.466  18.270   5.541  1.00 20.00    +0.016 C 
ATOM     10 N10  LIG A   1      21.513  19.172   6.183  1.00 20.00    -0.385 NA
ATOM     11 C11  LIG A   1      21.712  19.632   7.486  1.00 20.00    +0.034 A 
ATOM     12 C12  LIG A   1      22.524  18.995   8.428  1.00 20.00    -0.038 A 
ATOM     13 C13  LIG A   1      22.637  19.478   9.741  1.00 20.00    -0.049 A 
ATOM     14 C14  LIG A   1      21.915  20.599  10.164  1.00 20.00    +0.017 A 
ATOM     15 C15  LIG A   1      22.051  21.108  11.528  1.00 20.00    +0.134 A 
ATOM     16 C16  LIG A   1      22.806  20.746  12.625  1.00 20.00    -0.015 A 
ATOM     17 C17  LIG A   1      22.493  21.664  13.658  1.00 20.00    -0.015 A 
ATOM     18 C18  LIG A   1      21.556  22.537  13.143  1.00 20.00    +0.134 A 
ATOM     19 C19  LIG A   1      20.840  23.698  13.667  1.00 20.00    +0.017 A 
ATOM     20 C20  LIG A   1      21.235  24.300  14.867  1.00 20.00    -0.049 A 
ATOM     21 C21  LIG A   1      20.554  25.417  15.374  1.00 20.00    -0.038 A 
ATOM     22 C22  LIG A   1      19.440  25.950  14.722  1.00 20.00    +0.034 A 
ATOM     23 N23  LIG A   1      18.764  27.093  15.133  1.00 20.00    -0.385 NA
ATOM     24 C24  LIG A   1      18.925  27.671  16.465  1.00 20.00    +0.016 C 
ATOM     25 C25  LIG A   1      20.035  28.724  16.479  1.00 20.00    -0.023 C 
ATOM     26 C26  LIG A   1      19.688  29.980  15.672  1.00 20.00    -0.003 C 
ATOM     27 N27  LIG A   1      18.623  30.748  16.331  1.00 20.00    -0.317 NA
ATOM     28 C28  LIG A   1      18.173  31.882  15.522  1.00 20.00    -0.005 C 
ATOM     29 C29  LIG A   1      17.296  31.491  14.326  1.00 20.00    -0.039 C 
ATOM     30 C30  LIG A   1      16.037  30.715  14.737  1.00 20.00    -0.040 C 
ATOM     31 C31  LIG A   1      15.177  30.278  13.549  1.00 20.00    -0.008 C 
ATOM     32 N32  LIG A   1      14.602  31.398  12.813  1.00 20.00    -0.330 NA
ATOM     33 C33  LIG A   1      19.070  25.361  13.505  1.00 20.00    -0.038 A 
ATOM     34 C34  LIG A   1      19.749  24.250  12.990  1.00 20.00    -0.049 A 
ATOM     35 O35  LIG A   1      21.285  22.194  11.848  1.00 20.00    -0.456 OA
ATOM     36 C36  LIG A   1      21.064  21.211   9.238  1.00 20.00    -0.049 A 
ATOM     37 C37  LIG A   1      20.955  20.725   7.929  1.00 20.00    -0.038 A 
ATOM     38 O38  LIG A   1      18.735  24.677  12.997  1.00 20.00    -0.251 OA
ATOM     39 C39  LIG A   1      19.391  23.750  12.549  1.00 20.00    +0.317 C 
ATOM     40 O40  LIG A   1      19.761  22.727  13.353  1.00 20.00    -0.480 OA
ATOM     41 C41  LIG A   1      19.952  23.644  11.137  1.00 20.00    +0.094 C 
ATOM     42 N42  LIG A   1      20.018  22.235  10.706  1.00 20.00    -0.306 NA
ATOM     43 C43  LIG A   1      20.787  22.099   9.463  1.00 20.00    +0.005 C 
ATOM     44 C44  LIG A   1      20.847  20.643   8.978  1.00 20.00    +0.003 C 
ATOM     45 S45  LIG A   1      19.202  19.993   8.553  1.00 20.00    -0.178 SA
ATOM     46 H46  LIG A   1      20.699  10.440   2.083  1.00 20.00    +0.118 HD
ATOM     47 H47  LIG A   1      21.547  10.250   3.455  1.00 20.00    +0.118 HD
ATOM     48 H48  LIG A   1      19.583  10.528   4.797  1.00 20.00    +0.043 H 
ATOM     49 H49  LIG A   1      18.652  10.720   3.310  1.00 20.00    +0.043 H 
ATOM     50 H50  LIG A   1      20.044  12.721   2.697  1.00 20.00    +0.028 H 
ATOM     51 H51  LIG A   1      20.980  12.522   4.180  1.00 20.00    +0.028 H 
ATOM     52 H52  LIG A   1      17.954  13.010   4.066  1.00 20.00    +0.028 H 
ATOM     53 H53  LIG A   1      18.903  12.875   5.541  1.00 20.00    +0.028 H 
ATOM     54 H54  LIG A   1      18.385  15.233   4.912  1.00 20.00    +0.043 H 
ATOM     55 H55  LIG A   1      19.245  15.020   3.378  1.00 20.00    +0.043 H 
ATOM     56 H56  LIG A   1      20.418  14.778   6.076  1.00 20.00    +0.122 HD
ATOM     57 H57  LIG A   1      19.924  17.050   5.464  1.00 20.00    +0.043 H 
ATOM     58 H58  LIG A   1      20.817  16.781   3.951  1.00 20.00    +0.043 H 
ATOM     59 H59  LIG A   1      21.980  16.550   6.778  1.00 20.00    +0.030 H 
ATOM     60 H60  LIG A   1      22.862  16.180   5.297  1.00 20.00    +0.030 H 
ATOM     61 H61  LIG A   1      23.486  18.437   5.906  1.00 20.00    +0.049 H 
ATOM     62 H62  LIG A   1      22.492  18.506   4.470  1.00 20.00    +0.049 H 
ATOM     63 H63  LIG A   1      21.213  19.925   5.567  1.00 20.00    +0.160 HD
ATOM     64 H64  LIG A   1      23.096  18.110   8.167  1.00 20.00    +0.064 H 
ATOM     65 H65  LIG A   1      23.297  18.952  10.426  1.00 20.00    +0.063 H 
ATOM     66 H66  LIG A   1      23.507  19.925  12.678  1.00 20.00    +0.066 H 
ATOM     67 H67  LIG A   1      22.901  21.681  14.659  1.00 20.00    +0.066 H 
ATOM     68 H68  LIG A   1      22.091  23.923  15.421  1.00 20.00    +0.063 H 
ATOM     69 H69  LIG A   1      20.922  25.857  16.296  1.00 20.00    +0.064 H 
ATOM     70 H70  LIG A   1      17.804  27.128  14.800  1.00 20.00    +0.160 HD
ATOM     71 H71  LIG A   1      17.973  28.130  16.759  1.00 20.00    +0.049 H 
ATOM     72 H72  LIG A   1      19.121  26.895  17.213  1.00 20.00    +0.049 H 
ATOM     73 H73  LIG A   1      20.247  29.005  17.518  1.00 20.00    +0.030 H 
ATOM     74 H74  LIG A   1      20.962  28.301  16.077  1.00 20.00    +0.030 H 
ATOM     75 H75  LIG A   1      20.585  30.606  15.592  1.00 20.00    +0.043 H 
ATOM     76 H76  LIG A   1      19.403  29.688  14.656  1.00 20.00    +0.043 H 
ATOM     77 H77  LIG A   1      18.988  31.104  17.215  1.00 20.00    +0.122 HD
ATOM     78 H78  LIG A   1      17.585  32.541  16.172  1.00 20.00    +0.043 H 
ATOM     79 H79  LIG A   1      19.030  32.473  15.177  1.00 20.00    +0.043 H 
ATOM     80 H80  LIG A   1      17.872  30.903  13.603  1.00 20.00    +0.028 H 
ATOM     81 H81  LIG A   1      17.006  32.415  13.811  1.00 20.00    +0.028 H 
ATOM     82 H82  LIG A   1      15.438  31.323  15.426  1.00 20.00    +0.028 H 
ATOM     83 H83  LIG A   1      16.326  29.811  15.287  1.00 20.00    +0.028 H 
ATOM     84 H84  LIG A   1      15.765  29.659  12.863  1.00 20.00    +0.043 H 
ATOM     85 H85  LIG A   1      14.357  29.652  13.917  1.00 20.00    +0.043 H 
ATOM     86 H86  LIG A   1      14.127  32.025  13.461  1.00 20.00    +0.118 HD
ATOM     87 H87  LIG A   1      15.344  31.945  12.380  1.00 20.00    +0.118 HD
ATOM     88 H88  LIG A   1      18.239  25.769  12.935  1.00 20.00    +0.064 H 
ATOM     89 H89  LIG A   1      19.415  23.824  12.046  1.00 20.00    +0.063 H 
ATOM     90 H90  LIG A   1      20.469  22.075   9.524  1.00 20.00    +0.063 H 
ATOM     91 H91  LIG A   1      20.267  21.220   7.249  1.00 20.00    +0.064 H 
ATOM     92 H92  LIG A   1      19.330  22.941  14.208  1.00 20.00    +0.296 HD
ATOM     93 H93  LIG A   1      19.291  24.200  10.465  1.00 20.00    +0.055 H 
ATOM     94 H94  LIG A   1      20.945  24.105  11.148  1.00 20.00    +0.055 H 
ATOM     95 H95  LIG A   1      20.456  21.696  11.458  1.00 20.00    +0.123 HD
ATOM     96 H96  LIG A   1      20.350  22.729   8.678  1.00 20.00    +0.044 H 
ATOM     97 H97  LIG A   1      21.813  22.447   9.629  1.00 20.00    +0.044 H 
ATOM     98 H98  LIG A   1      21.484  20.573   8.090  1.00 20.00    +0.039 H 
ATOM     99 H99  LIG A   1      21.285  20.003   9.752  1.00 20.00    +0.039 H 
ATOM    100 H100 LIG A   1      18.596  20.460   9.658  1.00 20.00    +0.102 HD
ENDROOT
TORSDOF 0
                                                                                                       
ENDMDL
MODEL 6
REMARK VINA RESULT:    -9.122      3.988      6.452
REMARK INTER + INTRA:          -9.122
REMARK INTER:                  -9.122
REMARK INTRA:                   0.000
REMARK UNBOUND:                 0.000
ROOT
ATOM      1 N1   LIG A   1      19.572  32.900  18.705  1.00 20.00    -0.330 NA
ATOM      2 C2   LIG A   1      18.723  31.775  18.324  1.00 20.00    -0.008 C 
ATOM      3 C3   LIG A   1      19.558  30.529  18.037  1.00 20.00    -0.040 C 
ATOM      4 C4   LIG A   1      18.666  29.348  17.639  1.00 20.00    -0.039 C 
ATOM      5 C5   LIG A   1      19.453  28.054  17.415  1.00 20.00    -0.005 C 
ATOM      6 N6   LIG A   1      20.374  28.185  16.287  1.00 20.00    -0.317 NA
ATOM      7 C7   LIG A   1      21.146  26.952  16.093  1.00 20.00    -0.003 C 
ATOM      8 C8   LIG A   1      22.094  27.121  14.902  1.00 20.00    -0.023 C 
ATOM      9 C9   LIG A   1      23.022  25.918  14.732  1.00 20.00    +0.016 C 
ATOM     10 N10  LIG A   1      22.279  24.706  14.398  1.00 20.00    -0.385 NA
ATOM     11 C11  LIG A   1      22.091  24.310  13.072  1.00 20.00    +0.034 A 
ATOM     12 C12  LIG A   1      22.180  25.172  11.976  1.00 20.00    -0.038 A 
ATOM     13 C13  LIG A   1      21.924  24.723  10.671  1.00 20.00    -0.049 A 
ATOM     14 C14  LIG A   1      21.541  23.400  10.423  1.00 20.00    +0.017 A 
ATOM     15 C15  LIG A   1      21.293  22.934   9.060  1.00 20.00    +0.134 A 
ATOM     16 C16  LIG A   1      21.369  23.515   7.809  1.00 20.00    -0.015 A 
ATOM     17 C17  LIG A   1      21.017  22.512   6.871  1.00 20.00    -0.015 A 
ATOM     18 C18  LIG A   1      20.737  21.370   7.596  1.00 20.00    +0.134 A 
ATOM     19 C19  LIG A   1      20.333  20.011   7.248  1.00 20.00    +0.017 A 
ATOM     20 C20  LIG A   1      20.403  19.559   5.926  1.00 20.00    -0.049 A 
ATOM     21 C21  LIG A   1      20.019  18.253   5.585  1.00 20.00    -0.038 A 
ATOM     22 C22  LIG A   1      19.523  17.367   6.544  1.00 20.00    +0.034 A 
ATOM     23 N23  LIG A   1      19.191  16.041   6.287  1.00 20.00    -0.385 NA
ATOM     24 C24  LIG A   1      19.002  15.520   4.935  1.00 20.00    +0.016 C 
ATOM     25 C25  LIG A   1      20.309  14.955   4.373  1.00 20.00    -0.023 C 
ATOM     26 C26  LIG A   1      20.779  13.688   5.095  1.00 20.00    -0.003 C 
ATOM     27 N27  LIG A   1      19.887  12.558   4.804  1.00 20.00    -0.317 NA
ATOM     28 C28  LIG A   1      20.228  11.365   5.581  1.00 20.00    -0.005 C 
ATOM     29 C29  LIG A   1      19.822  11.442   7.059  1.00 20.00    -0.039 C 
ATOM     30 C30  LIG A   1      18.319  11.681   7.253  1.00 20.00    -0.040 C 
ATOM     31 C31  LIG A   1      17.908  11.805   8.722  1.00 20.00    -0.008 C 
ATOM     32 N32  LIG A   1      18.110  10.576   9.482  1.00 20.00    -0.330 NA
ATOM     33 C33  LIG A   1      19.485  17.815   7.871  1.00 20.00    -0.038 A 
ATOM     34 C34  LIG A   1      19.873  19.116   8.219  1.00 20.00    -0.049 A 
ATOM     35 O35  LIG A   1      20.901  21.631   8.927  1.00 20.00    -0.456 OA
ATOM     36 C36  LIG A   1      21.404  22.547  11.522  1.00 20.00    -0.049 A 
ATOM     37 C37  LIG A   1      21.661  23.001  12.823  1.00 20.00    -0.038 A 
ATOM     38 O38  LIG A   1      19.162  18.342   8.546  1.00 20.00    -0.251 OA
ATOM     39 C39  LIG A   1      19.568  19.460   8.819  1.00 20.00    +0.317 C 
ATOM     40 O40  LIG A   1      19.200  20.521   8.063  1.00 20.00    -0.480 OA
ATOM     41 C41  LIG A   1      20.567  19.814   9.912  1.00 20.00    +0.094 C 
ATOM     42 N42  LIG A   1      20.296  21.160  10.452  1.00 20.00    -0.306 NA
ATOM     43 C43  LIG A   1      21.394  21.613  11.315  1.00 20.00    +0.005 C 
ATOM     44 C44  LIG A   1      21.123  23.002  11.912  1.00 20.00    +0.003 C 
ATOM     45 S45  LIG A   1      19.670  23.008  13.005  1.00 20.00    -0.178 SA
ATOM     46 H46  LIG A   1      20.134  32.640  19.514  1.00 20.00    +0.118 HD
ATOM     47 H47  LIG A   1      20.239  33.086  17.955  1.00 20.00    +0.118 HD
ATOM     48 H48  LIG A   1      18.140  32.054  17.439  1.00 20.00    +0.043 H 
ATOM     49 H49  LIG A   1      18.012  31.579  19.134  1.00 20.00    +0.043 H 
ATOM     50 H50  LIG A   1      20.141  30.260  18.927  1.00 20.00    +0.028 H 
ATOM     51 H51  LIG A   1      20.274  30.744  17.234  1.00 20.00    +0.028 H 
ATOM     52 H52  LIG A   1      17.929  29.170  18.432  1.00 20.00    +0.028 H 
ATOM     53 H53  LIG A   1      18.099  29.600  16.734  1.00 20.00    +0.028 H 
ATOM     54 H54  LIG A   1      18.743  27.240  17.225  1.00 20.00    +0.043 H 
ATOM     55 H55  LIG A   1      20.006  27.807  18.330  1.00 20.00    +0.043 H 
ATOM     56 H56  LIG A   1      19.841  28.380  15.439  1.00 20.00    +0.122 HD
ATOM     57 H57  LIG A   1      20.469  26.108  15.916  1.00 20.00    +0.043 H 
ATOM     58 H58  LIG A   1      21.731  26.739  16.996  1.00 20.00    +0.043 H 
ATOM     59 H59  LIG A   1      21.511  27.292  13.989  1.00 20.00    +0.030 H 
ATOM     60 H60  LIG A   1      22.715  28.013  15.056  1.00 20.00    +0.030 H 
ATOM     61 H61  LIG A   1      23.800  26.130  13.989  1.00 20.00    +0.049 H 
ATOM     62 H62  LIG A   1      23.553  25.744  15.675  1.00 20.00    +0.049 H 
ATOM     63 H63  LIG A   1      22.536  23.916  14.986  1.00 20.00    +0.160 HD
ATOM     64 H64  LIG A   1      22.455  26.214  12.104  1.00 20.00    +0.064 H 
ATOM     65 H65  LIG A   1      22.025  25.434   9.855  1.00 20.00    +0.063 H 
ATOM     66 H66  LIG A   1      21.651  24.535   7.593  1.00 20.00    +0.066 H 
ATOM     67 H67  LIG A   1      20.972  22.615   5.796  1.00 20.00    +0.066 H 
ATOM     68 H68  LIG A   1      20.774  20.209   5.136  1.00 20.00    +0.063 H 
ATOM     69 H69  LIG A   1      20.120  17.952   4.548  1.00 20.00    +0.064 H 
ATOM     70 H70  LIG A   1      18.523  15.663   6.953  1.00 20.00    +0.160 HD
ATOM     71 H71  LIG A   1      18.241  14.732   4.972  1.00 20.00    +0.049 H 
ATOM     72 H72  LIG A   1      18.596  16.289   4.267  1.00 20.00    +0.049 H 
ATOM     73 H73  LIG A   1      20.175  14.739   3.306  1.00 20.00    +0.030 H 
ATOM     74 H74  LIG A   1      21.104  15.706   4.440  1.00 20.00    +0.030 H 
ATOM     75 H75  LIG A   1      21.792  13.443   4.752  1.00 20.00    +0.043 H 
ATOM     76 H76  LIG A   1      20.838  13.887   6.170  1.00 20.00    +0.043 H 
ATOM     77 H77  LIG A   1      19.970  12.334   3.811  1.00 20.00    +0.122 HD
ATOM     78 H78  LIG A   1      19.705  10.514   5.130  1.00 20.00    +0.043 H 
ATOM     79 H79  LIG A   1      21.299  11.146   5.500  1.00 20.00    +0.043 H 
ATOM     80 H80  LIG A   1      20.390  12.225   7.573  1.00 20.00    +0.028 H 
ATOM     81 H81  LIG A   1      20.109  10.494   7.530  1.00 20.00    +0.028 H 
ATOM     82 H82  LIG A   1      17.753  10.871   6.777  1.00 20.00    +0.028 H 
ATOM     83 H83  LIG A   1      18.026  12.608   6.748  1.00 20.00    +0.028 H 
ATOM     84 H84  LIG A   1      18.461  12.620   9.202  1.00 20.00    +0.043 H 
ATOM     85 H85  LIG A   1      16.846  12.069   8.772  1.00 20.00    +0.043 H 
ATOM     86 H86  LIG A   1      17.671   9.796   8.993  1.00 20.00    +0.118 HD
ATOM     87 H87  LIG A   1      19.103  10.359   9.531  1.00 20.00    +0.118 HD
ATOM     88 H88  LIG A   1      19.153  17.146   8.660  1.00 20.00    +0.064 H 
ATOM     89 H89  LIG A   1      19.814  19.417   9.262  1.00 20.00    +0.063 H 
ATOM     90 H90  LIG A   1      21.091  21.515  11.383  1.00 20.00    +0.063 H 
ATOM     91 H91  LIG A   1      21.523  22.307  13.648  1.00 20.00    +0.064 H 
ATOM     92 H92  LIG A   1      18.571  20.133   7.418  1.00 20.00    +0.296 HD
ATOM     93 H93  LIG A   1      20.471  19.074  10.714  1.00 20.00    +0.055 H 
ATOM     94 H94  LIG A   1      21.567  19.755   9.470  1.00 20.00    +0.055 H 
ATOM     95 H95  LIG A   1      20.178  21.798   9.660  1.00 20.00    +0.123 HD
ATOM     96 H96  LIG A   1      21.558  20.892  12.126  1.00 20.00    +0.044 H 
ATOM     97 H97  LIG A   1      22.320  21.666  10.731  1.00 20.00    +0.044 H 
ATOM     98 H98  LIG A   1      21.991  23.332  12.492  1.00 20.00    +0.039 H 
ATOM     99 H99  LIG A   1      20.960  23.733  11.112  1.00 20.00    +0.039 H 
ATOM    100 H100 LIG A   1      18.882  22.313  12.166  1.00 20.00    +0.102 HD
ENDROOT
TORSDOF 0
                                                                                                       
ENDMDL
MODEL 7
REMARK VINA RESULT:    -9.119      3.369      5.557
REMARK INTER + INTRA:          -9.119
REMARK INTER:                  -9.119
REMARK INTRA:                   0.000
REMARK UNBOUND:                 0.000
ROOT
ATOM      1 N1   LIG A   1      25.200  20.911  13.714  1.00 20.00    -0.330 NA
ATOM      2 C2   LIG A   1      24.627  21.119  12.388  1.00 20.00    -0.008 C 
ATOM      3 C3   LIG A   1      23.256  20.457  12.271  1.00 20.00    -0.040 C 
ATOM      4 C4   LIG A   1      22.654  20.678  10.879  1.00 20.00    -0.039 C 
ATOM      5 C5   LIG A   1      21.245  20.096  10.739  1.00 20.00    -0.005 C 
ATOM      6 N6   LIG A   1      21.258  18.641  10.881  1.00 20.00    -0.317 NA
ATOM      7 C7   LIG A   1      19.902  18.090  10.773  1.00 20.00    -0.003 C 
ATOM      8 C8   LIG A   1      19.952  16.567  10.920  1.00 20.00    -0.023 C 
ATOM      9 C9   LIG A   1      18.555  15.947  10.950  1.00 20.00    +0.016 C 
ATOM     10 N10  LIG A   1      17.852  16.137   9.685  1.00 20.00    -0.385 NA
ATOM     11 C11  LIG A   1      17.884  15.166   8.682  1.00 20.00    +0.034 A 
ATOM     12 C12  LIG A   1      18.868  14.181   8.575  1.00 20.00    -0.038 A 
ATOM     13 C13  LIG A   1      18.875  13.267   7.509  1.00 20.00    -0.049 A 
ATOM     14 C14  LIG A   1      17.910  13.329   6.498  1.00 20.00    +0.017 A 
ATOM     15 C15  LIG A   1      17.912  12.363   5.400  1.00 20.00    +0.134 A 
ATOM     16 C16  LIG A   1      18.688  11.269   5.075  1.00 20.00    -0.015 A 
ATOM     17 C17  LIG A   1      18.156  10.732   3.875  1.00 20.00    -0.015 A 
ATOM     18 C18  LIG A   1      17.085  11.530   3.524  1.00 20.00    +0.134 A 
ATOM     19 C19  LIG A   1      16.120  11.523   2.428  1.00 20.00    +0.017 A 
ATOM     20 C20  LIG A   1      15.999  10.411   1.588  1.00 20.00    -0.049 A 
ATOM     21 C21  LIG A   1      15.071  10.396   0.536  1.00 20.00    -0.038 A 
ATOM     22 C22  LIG A   1      14.258  11.500   0.266  1.00 20.00    +0.034 A 
ATOM     23 N23  LIG A   1      13.272  11.525  -0.715  1.00 20.00    -0.385 NA
ATOM     24 C24  LIG A   1      13.200  10.538  -1.790  1.00 20.00    +0.016 C 
ATOM     25 C25  LIG A   1      12.310   9.357  -1.395  1.00 20.00    -0.023 C 
ATOM     26 C26  LIG A   1      10.830   9.733  -1.263  1.00 20.00    -0.003 C 
ATOM     27 N27  LIG A   1      10.249  10.039  -2.577  1.00 20.00    -0.317 NA
ATOM     28 C28  LIG A   1       8.874  10.531  -2.477  1.00 20.00    -0.005 C 
ATOM     29 C29  LIG A   1       8.759  11.975  -1.970  1.00 20.00    -0.039 C 
ATOM     30 C30  LIG A   1       9.523  12.977  -2.847  1.00 20.00    -0.040 C 
ATOM     31 C31  LIG A   1       9.455  14.415  -2.327  1.00 20.00    -0.008 C 
ATOM     32 N32  LIG A   1       8.108  14.973  -2.352  1.00 20.00    -0.330 NA
ATOM     33 C33  LIG A   1      14.363  12.597   1.130  1.00 20.00    -0.038 A 
ATOM     34 C34  LIG A   1      15.282  12.616   2.187  1.00 20.00    -0.049 A 
ATOM     35 O35  LIG A   1      16.942  12.524   4.450  1.00 20.00    -0.456 OA
ATOM     36 C36  LIG A   1      16.952  14.344   6.576  1.00 20.00    -0.049 A 
ATOM     37 C37  LIG A   1      16.950  15.253   7.642  1.00 20.00    -0.038 A 
ATOM     38 O38  LIG A   1      14.801  13.317   1.488  1.00 20.00    -0.251 OA
ATOM     39 C39  LIG A   1      15.569  13.270   2.435  1.00 20.00    +0.317 C 
ATOM     40 O40  LIG A   1      16.833  12.816   2.265  1.00 20.00    -0.480 OA
ATOM     41 C41  LIG A   1      15.232  13.593   3.884  1.00 20.00    +0.094 C 
ATOM     42 N42  LIG A   1      16.409  14.140   4.585  1.00 20.00    -0.306 NA
ATOM     43 C43  LIG A   1      16.175  14.214   6.032  1.00 20.00    +0.005 C 
ATOM     44 C44  LIG A   1      17.376  14.806   6.782  1.00 20.00    +0.003 C 
ATOM     45 S45  LIG A   1      17.705  16.529   6.300  1.00 20.00    -0.178 SA
ATOM     46 H46  LIG A   1      24.557  21.269  14.420  1.00 20.00    +0.118 HD
ATOM     47 H47  LIG A   1      25.274  19.909  13.895  1.00 20.00    +0.118 HD
ATOM     48 H48  LIG A   1      25.312  20.709  11.638  1.00 20.00    +0.043 H 
ATOM     49 H49  LIG A   1      24.547  22.196  12.203  1.00 20.00    +0.043 H 
ATOM     50 H50  LIG A   1      22.579  20.870  13.029  1.00 20.00    +0.028 H 
ATOM     51 H51  LIG A   1      23.349  19.383  12.473  1.00 20.00    +0.028 H 
ATOM     52 H52  LIG A   1      22.605  21.755  10.675  1.00 20.00    +0.028 H 
ATOM     53 H53  LIG A   1      23.314  20.244  10.117  1.00 20.00    +0.028 H 
ATOM     54 H54  LIG A   1      20.849  20.372   9.754  1.00 20.00    +0.043 H 
ATOM     55 H55  LIG A   1      20.594  20.547  11.498  1.00 20.00    +0.043 H 
ATOM     56 H56  LIG A   1      21.840  18.237  10.147  1.00 20.00    +0.122 HD
ATOM     57 H57  LIG A   1      19.463  18.359   9.805  1.00 20.00    +0.043 H 
ATOM     58 H58  LIG A   1      19.270  18.512  11.565  1.00 20.00    +0.043 H 
ATOM     59 H59  LIG A   1      20.548  16.138  10.105  1.00 20.00    +0.030 H 
ATOM     60 H60  LIG A   1      20.461  16.309  11.858  1.00 20.00    +0.030 H 
ATOM     61 H61  LIG A   1      18.607  14.887  11.226  1.00 20.00    +0.049 H 
ATOM     62 H62  LIG A   1      17.970  16.430  11.743  1.00 20.00    +0.049 H 
ATOM     63 H63  LIG A   1      16.912  16.506   9.812  1.00 20.00    +0.160 HD
ATOM     64 H64  LIG A   1      19.654  14.091   9.318  1.00 20.00    +0.064 H 
ATOM     65 H65  LIG A   1      19.656  12.511   7.486  1.00 20.00    +0.063 H 
ATOM     66 H66  LIG A   1      19.532  10.892   5.635  1.00 20.00    +0.066 H 
ATOM     67 H67  LIG A   1      18.515   9.869   3.334  1.00 20.00    +0.066 H 
ATOM     68 H68  LIG A   1      16.611   9.526   1.747  1.00 20.00    +0.063 H 
ATOM     69 H69  LIG A   1      15.005   9.495  -0.066  1.00 20.00    +0.064 H 
ATOM     70 H70  LIG A   1      13.047  12.466  -1.028  1.00 20.00    +0.160 HD
ATOM     71 H71  LIG A   1      12.794  11.028  -2.682  1.00 20.00    +0.049 H 
ATOM     72 H72  LIG A   1      14.198  10.188  -2.076  1.00 20.00    +0.049 H 
ATOM     73 H73  LIG A   1      12.420   8.561  -2.143  1.00 20.00    +0.030 H 
ATOM     74 H74  LIG A   1      12.645   8.934  -0.441  1.00 20.00    +0.030 H 
ATOM     75 H75  LIG A   1      10.291   8.887  -0.821  1.00 20.00    +0.043 H 
ATOM     76 H76  LIG A   1      10.733  10.577  -0.574  1.00 20.00    +0.043 H 
ATOM     77 H77  LIG A   1      10.248   9.183  -3.133  1.00 20.00    +0.122 HD
ATOM     78 H78  LIG A   1       8.431  10.487  -3.478  1.00 20.00    +0.043 H 
ATOM     79 H79  LIG A   1       8.273   9.867  -1.844  1.00 20.00    +0.043 H 
ATOM     80 H80  LIG A   1       9.110  12.049  -0.935  1.00 20.00    +0.028 H 
ATOM     81 H81  LIG A   1       7.694  12.237  -1.955  1.00 20.00    +0.028 H 
ATOM     82 H82  LIG A   1       9.140  12.935  -3.874  1.00 20.00    +0.028 H 
ATOM     83 H83  LIG A   1      10.581  12.692  -2.894  1.00 20.00    +0.028 H 
ATOM     84 H84  LIG A   1       9.848  14.467  -1.306  1.00 20.00    +0.043 H 
ATOM     85 H85  LIG A   1      10.100  15.047  -2.947  1.00 20.00    +0.043 H 
ATOM     86 H86  LIG A   1       7.703  14.847  -3.280  1.00 20.00    +0.118 HD
ATOM     87 H87  LIG A   1       7.509  14.459  -1.709  1.00 20.00    +0.118 HD
ATOM     88 H88  LIG A   1      13.717  13.461   0.991  1.00 20.00    +0.064 H 
ATOM     89 H89  LIG A   1      15.331  13.497   2.822  1.00 20.00    +0.063 H 
ATOM     90 H90  LIG A   1      16.192  14.445   5.804  1.00 20.00    +0.063 H 
ATOM     91 H91  LIG A   1      16.197  16.037   7.650  1.00 20.00    +0.064 H 
ATOM     92 H92  LIG A   1      16.889  12.655   1.299  1.00 20.00    +0.296 HD
ATOM     93 H93  LIG A   1      14.427  14.335   3.890  1.00 20.00    +0.055 H 
ATOM     94 H94  LIG A   1      14.886  12.665   4.351  1.00 20.00    +0.055 H 
ATOM     95 H95  LIG A   1      17.207  13.531   4.383  1.00 20.00    +0.123 HD
ATOM     96 H96  LIG A   1      15.281  14.816   6.239  1.00 20.00    +0.044 H 
ATOM     97 H97  LIG A   1      15.990  13.207   6.424  1.00 20.00    +0.044 H 
ATOM     98 H98  LIG A   1      17.190  14.781   7.861  1.00 20.00    +0.039 H 
ATOM     99 H99  LIG A   1      18.276  14.213   6.587  1.00 20.00    +0.039 H 
ATOM    100 H100 LIG A   1      17.596  16.310   4.979  1.00 20.00    +0.102 HD
ENDROOT
TORSDOF 0
                                                                                                       
ENDMDL
MODEL 8
REMARK VINA RESULT:    -8.718      3.702      4.777
REMARK INTER + INTRA:          -8.718
REMARK INTER:                  -8.718
REMARK INTRA:                   0.000
REMARK UNBOUND:                 0.000
ROOT
ATOM      1 N1   LIG A   1      25.056  31.402  15.198  1.00 20.00    -0.330 NA
ATOM      2 C2   LIG A   1      23.765  30.787  14.907  1.00 20.00    -0.008 C 
ATOM      3 C3   LIG A   1      23.797  29.285  15.180  1.00 20.00    -0.040 C 
ATOM      4 C4   LIG A   1      22.440  28.641  14.876  1.00 20.00    -0.039 C 
ATOM      5 C5   LIG A   1      22.401  27.146  15.208  1.00 20.00    -0.005 C 
ATOM      6 N6   LIG A   1      23.334  26.395  14.369  1.00 20.00    -0.317 NA
ATOM      7 C7   LIG A   1      23.314  24.967  14.709  1.00 20.00    -0.003 C 
ATOM      8 C8   LIG A   1      24.296  24.210  13.810  1.00 20.00    -0.023 C 
ATOM      9 C9   LIG A   1      24.419  22.739  14.206  1.00 20.00    +0.016 C 
ATOM     10 N10  LIG A   1      23.163  22.020  14.009  1.00 20.00    -0.385 NA
ATOM     11 C11  LIG A   1      22.903  21.322  12.827  1.00 20.00    +0.034 A 
ATOM     12 C12  LIG A   1      23.545  21.571  11.612  1.00 20.00    -0.038 A 
ATOM     13 C13  LIG A   1      23.197  20.872  10.445  1.00 20.00    -0.049 A 
ATOM     14 C14  LIG A   1      22.173  19.919  10.452  1.00 20.00    +0.017 A 
ATOM     15 C15  LIG A   1      21.827  19.181   9.238  1.00 20.00    +0.134 A 
ATOM     16 C16  LIG A   1      22.317  19.157   7.947  1.00 20.00    -0.015 A 
ATOM     17 C17  LIG A   1      21.553  18.196   7.238  1.00 20.00    -0.015 A 
ATOM     18 C18  LIG A   1      20.630  17.686   8.129  1.00 20.00    +0.134 A 
ATOM     19 C19  LIG A   1      19.576  16.679   8.046  1.00 20.00    +0.017 A 
ATOM     20 C20  LIG A   1      19.499  15.811   6.951  1.00 20.00    -0.049 A 
ATOM     21 C21  LIG A   1      18.491  14.839   6.867  1.00 20.00    -0.038 A 
ATOM     22 C22  LIG A   1      17.509  14.721   7.853  1.00 20.00    +0.034 A 
ATOM     23 N23  LIG A   1      16.525  13.737   7.865  1.00 20.00    -0.385 NA
ATOM     24 C24  LIG A   1      16.198  12.932   6.691  1.00 20.00    +0.016 C 
ATOM     25 C25  LIG A   1      17.020  11.642   6.660  1.00 20.00    -0.023 C 
ATOM     26 C26  LIG A   1      16.652  10.663   7.780  1.00 20.00    -0.003 C 
ATOM     27 N27  LIG A   1      15.314  10.097   7.561  1.00 20.00    -0.317 NA
ATOM     28 C28  LIG A   1      14.873   9.261   8.679  1.00 20.00    -0.005 C 
ATOM     29 C29  LIG A   1      14.452  10.050   9.926  1.00 20.00    -0.039 C 
ATOM     30 C30  LIG A   1      13.318  11.046   9.646  1.00 20.00    -0.040 C 
ATOM     31 C31  LIG A   1      12.920  11.872  10.871  1.00 20.00    -0.008 C 
ATOM     32 N32  LIG A   1      12.346  11.070  11.945  1.00 20.00    -0.330 NA
ATOM     33 C33  LIG A   1      17.610  15.572   8.961  1.00 20.00    -0.038 A 
ATOM     34 C34  LIG A   1      18.618  16.540   9.055  1.00 20.00    -0.049 A 
ATOM     35 O35  LIG A   1      20.796  18.290   9.343  1.00 20.00    -0.456 OA
ATOM     36 C36  LIG A   1      21.495  19.702  11.655  1.00 20.00    -0.049 A 
ATOM     37 C37  LIG A   1      21.847  20.403  12.817  1.00 20.00    -0.038 A 
ATOM     38 O38  LIG A   1      17.574  16.390   9.369  1.00 20.00    -0.251 OA
ATOM     39 C39  LIG A   1      18.504  17.178   9.444  1.00 20.00    +0.317 C 
ATOM     40 O40  LIG A   1      18.846  17.930   8.373  1.00 20.00    -0.480 OA
ATOM     41 C41  LIG A   1      19.434  17.362  10.635  1.00 20.00    +0.094 C 
ATOM     42 N42  LIG A   1      19.904  18.758  10.721  1.00 20.00    -0.306 NA
ATOM     43 C43  LIG A   1      20.990  18.890  11.699  1.00 20.00    +0.005 C 
ATOM     44 C44  LIG A   1      21.479  20.340  11.826  1.00 20.00    +0.003 C 
ATOM     45 S45  LIG A   1      20.181  21.449  12.456  1.00 20.00    -0.178 SA
ATOM     46 H46  LIG A   1      25.310  31.210  16.167  1.00 20.00    +0.118 HD
ATOM     47 H47  LIG A   1      25.777  30.954  14.632  1.00 20.00    +0.118 HD
ATOM     48 H48  LIG A   1      23.510  30.977  13.858  1.00 20.00    +0.043 H 
ATOM     49 H49  LIG A   1      22.997  31.270  15.521  1.00 20.00    +0.043 H 
ATOM     50 H50  LIG A   1      24.057  29.105  16.231  1.00 20.00    +0.028 H 
ATOM     51 H51  LIG A   1      24.579  28.818  14.569  1.00 20.00    +0.028 H 
ATOM     52 H52  LIG A   1      21.662  29.145  15.462  1.00 20.00    +0.028 H 
ATOM     53 H53  LIG A   1      22.185  28.794  13.820  1.00 20.00    +0.028 H 
ATOM     54 H54  LIG A   1      21.379  26.779  15.050  1.00 20.00    +0.043 H 
ATOM     55 H55  LIG A   1      22.645  27.008  16.268  1.00 20.00    +0.043 H 
ATOM     56 H56  LIG A   1      23.071  26.507  13.390  1.00 20.00    +0.122 HD
ATOM     57 H57  LIG A   1      22.302  24.565  14.581  1.00 20.00    +0.043 H 
ATOM     58 H58  LIG A   1      23.605  24.836  15.758  1.00 20.00    +0.043 H 
ATOM     59 H59  LIG A   1      23.984  24.305  12.764  1.00 20.00    +0.030 H 
ATOM     60 H60  LIG A   1      25.290  24.670  13.891  1.00 20.00    +0.030 H 
ATOM     61 H61  LIG A   1      25.246  22.260  13.668  1.00 20.00    +0.049 H 
ATOM     62 H62  LIG A   1      24.684  22.679  15.269  1.00 20.00    +0.049 H 
ATOM     63 H63  LIG A   1      22.891  21.477  14.826  1.00 20.00    +0.160 HD
ATOM     64 H64  LIG A   1      24.337  22.310  11.537  1.00 20.00    +0.064 H 
ATOM     65 H65  LIG A   1      23.743  21.094   9.532  1.00 20.00    +0.063 H 
ATOM     66 H66  LIG A   1      23.132  19.752   7.560  1.00 20.00    +0.066 H 
ATOM     67 H67  LIG A   1      21.665  17.915   6.200  1.00 20.00    +0.066 H 
ATOM     68 H68  LIG A   1      20.233  15.863   6.150  1.00 20.00    +0.063 H 
ATOM     69 H69  LIG A   1      18.498  14.178   6.006  1.00 20.00    +0.064 H 
ATOM     70 H70  LIG A   1      15.705  14.003   8.403  1.00 20.00    +0.160 HD
ATOM     71 H71  LIG A   1      15.129  12.691   6.725  1.00 20.00    +0.049 H 
ATOM     72 H72  LIG A   1      16.341  13.502   5.766  1.00 20.00    +0.049 H 
ATOM     73 H73  LIG A   1      16.882  11.153   5.688  1.00 20.00    +0.030 H 
ATOM     74 H74  LIG A   1      18.088  11.873   6.742  1.00 20.00    +0.030 H 
ATOM     75 H75  LIG A   1      17.387   9.850   7.792  1.00 20.00    +0.043 H 
ATOM     76 H76  LIG A   1      16.718  11.177   8.744  1.00 20.00    +0.043 H 
ATOM     77 H77  LIG A   1      15.344   9.523   6.718  1.00 20.00    +0.122 HD
ATOM     78 H78  LIG A   1      14.009   8.679   8.339  1.00 20.00    +0.043 H 
ATOM     79 H79  LIG A   1      15.650   8.533   8.945  1.00 20.00    +0.043 H 
ATOM     80 H80  LIG A   1      15.310  10.579  10.354  1.00 20.00    +0.028 H 
ATOM     81 H81  LIG A   1      14.128   9.325  10.683  1.00 20.00    +0.028 H 
ATOM     82 H82  LIG A   1      12.443  10.509   9.260  1.00 20.00    +0.028 H 
ATOM     83 H83  LIG A   1      13.629  11.745   8.861  1.00 20.00    +0.028 H 
ATOM     84 H84  LIG A   1      13.786  12.422  11.255  1.00 20.00    +0.043 H 
ATOM     85 H85  LIG A   1      12.179  12.620  10.568  1.00 20.00    +0.043 H 
ATOM     86 H86  LIG A   1      11.594  10.489  11.574  1.00 20.00    +0.118 HD
ATOM     87 H87  LIG A   1      13.047  10.428  12.310  1.00 20.00    +0.118 HD
ATOM     88 H88  LIG A   1      16.898  15.486   9.778  1.00 20.00    +0.064 H 
ATOM     89 H89  LIG A   1      18.646  17.183   9.932  1.00 20.00    +0.063 H 
ATOM     90 H90  LIG A   1      20.679  18.985  11.707  1.00 20.00    +0.063 H 
ATOM     91 H91  LIG A   1      21.280  20.215  13.725  1.00 20.00    +0.064 H 
ATOM     92 H92  LIG A   1      18.166  17.699   7.705  1.00 20.00    +0.296 HD
ATOM     93 H93  LIG A   1      18.878  17.109  11.544  1.00 20.00    +0.055 H 
ATOM     94 H94  LIG A   1      20.270  16.667  10.505  1.00 20.00    +0.055 H 
ATOM     95 H95  LIG A   1      20.224  19.040   9.790  1.00 20.00    +0.123 HD
ATOM     96 H96  LIG A   1      20.660  18.527  12.681  1.00 20.00    +0.044 H 
ATOM     97 H97  LIG A   1      21.839  18.269  11.388  1.00 20.00    +0.044 H 
ATOM     98 H98  LIG A   1      22.331  20.386  12.512  1.00 20.00    +0.039 H 
ATOM     99 H99  LIG A   1      21.814  20.715  10.853  1.00 20.00    +0.039 H 
ATOM    100 H100 LIG A   1      19.217  20.982  11.645  1.00 20.00    +0.102 HD
ENDROOT
TORSDOF 0
                                                                                                       
ENDMDL
MODEL 9
REMARK VINA RESULT:    -8.640      4.158      5.912
REMARK INTER + INTRA:          -8.640
REMARK INTER:                  -8.640
REMARK INTRA:                   0.000
REMARK UNBOUND:                 0.000
ROOT
ATOM      1 N1   LIG A   1      26.504  18.311  14.631  1.00 20.00    -0.330 NA
ATOM      2 C2   LIG A   1      25.781  18.856  13.487  1.00 20.00    -0.008 C 
ATOM      3 C3   LIG A   1      24.356  18.311  13.427  1.00 20.00    -0.040 C 
ATOM      4 C4   LIG A   1      23.596  18.885  12.226  1.00 20.00    -0.039 C 
ATOM      5 C5   LIG A   1      22.136  18.425  12.167  1.00 20.00    -0.005 C 
ATOM      6 N6   LIG A   1      22.047  16.978  11.970  1.00 20.00    -0.317 NA
ATOM      7 C7   LIG A   1      20.647  16.538  11.942  1.00 20.00    -0.003 C 
ATOM      8 C8   LIG A   1      20.590  15.022  11.728  1.00 20.00    -0.023 C 
ATOM      9 C9   LIG A   1      19.163  14.483  11.823  1.00 20.00    +0.016 C 
ATOM     10 N10  LIG A   1      18.317  15.004  10.753  1.00 20.00    -0.385 NA
ATOM     11 C11  LIG A   1      18.134  14.298   9.561  1.00 20.00    +0.034 A 
ATOM     12 C12  LIG A   1      19.011  13.319   9.088  1.00 20.00    -0.038 A 
ATOM     13 C13  LIG A   1      18.801  12.685   7.853  1.00 20.00    -0.049 A 
ATOM     14 C14  LIG A   1      17.719  13.034   7.037  1.00 20.00    +0.017 A 
ATOM     15 C15  LIG A   1      17.495  12.357   5.760  1.00 20.00    +0.134 A 
ATOM     16 C16  LIG A   1      18.128  11.334   5.082  1.00 20.00    -0.015 A 
ATOM     17 C17  LIG A   1      17.399  11.125   3.885  1.00 20.00    -0.015 A 
ATOM     18 C18  LIG A   1      16.361  12.036   3.887  1.00 20.00    +0.134 A 
ATOM     19 C19  LIG A   1      15.262  12.338   2.973  1.00 20.00    +0.017 A 
ATOM     20 C20  LIG A   1      14.939  11.464   1.930  1.00 20.00    -0.049 A 
ATOM     21 C21  LIG A   1      13.882  11.746   1.051  1.00 20.00    -0.038 A 
ATOM     22 C22  LIG A   1      13.135  12.921   1.163  1.00 20.00    +0.034 A 
ATOM     23 N23  LIG A   1      12.034  13.228   0.371  1.00 20.00    -0.385 NA
ATOM     24 C24  LIG A   1      11.738  12.529  -0.878  1.00 20.00    +0.016 C 
ATOM     25 C25  LIG A   1      10.813  11.334  -0.635  1.00 20.00    -0.023 C 
ATOM     26 C26  LIG A   1       9.400  11.742  -0.203  1.00 20.00    -0.003 C 
ATOM     27 N27  LIG A   1       8.678  12.380  -1.312  1.00 20.00    -0.317 NA
ATOM     28 C28  LIG A   1       7.374  12.902  -0.900  1.00 20.00    -0.005 C 
ATOM     29 C29  LIG A   1       7.448  14.188  -0.066  1.00 20.00    -0.039 C 
ATOM     30 C30  LIG A   1       8.170  15.330  -0.794  1.00 20.00    -0.040 C 
ATOM     31 C31  LIG A   1       8.291  16.605   0.043  1.00 20.00    -0.008 C 
ATOM     32 N32  LIG A   1       7.003  17.219   0.346  1.00 20.00    -0.330 NA
ATOM     33 C33  LIG A   1      13.444  13.776   2.230  1.00 20.00    -0.038 A 
ATOM     34 C34  LIG A   1      14.494  13.497   3.114  1.00 20.00    -0.049 A 
ATOM     35 O35  LIG A   1      16.425  12.787   5.026  1.00 20.00    -0.456 OA
ATOM     36 C36  LIG A   1      16.867  14.047   7.485  1.00 20.00    -0.049 A 
ATOM     37 C37  LIG A   1      17.082  14.676   8.718  1.00 20.00    -0.038 A 
ATOM     38 O38  LIG A   1      13.984  14.367   2.673  1.00 20.00    -0.251 OA
ATOM     39 C39  LIG A   1      14.865  14.058   3.460  1.00 20.00    +0.317 C 
ATOM     40 O40  LIG A   1      16.052  13.595   3.006  1.00 20.00    -0.480 OA
ATOM     41 C41  LIG A   1      14.750  14.044   4.978  1.00 20.00    +0.094 C 
ATOM     42 N42  LIG A   1      16.051  14.350   5.603  1.00 20.00    -0.306 NA
ATOM     43 C43  LIG A   1      16.017  14.089   7.047  1.00 20.00    +0.005 C 
ATOM     44 C44  LIG A   1      17.352  14.426   7.726  1.00 20.00    +0.003 C 
ATOM     45 S45  LIG A   1      17.756  16.195   7.606  1.00 20.00    -0.178 SA
ATOM     46 H46  LIG A   1      25.993  18.523  15.486  1.00 20.00    +0.118 HD
ATOM     47 H47  LIG A   1      26.518  17.293  14.565  1.00 20.00    +0.118 HD
ATOM     48 H48  LIG A   1      26.324  18.603  12.570  1.00 20.00    +0.043 H 
ATOM     49 H49  LIG A   1      25.766  19.949  13.566  1.00 20.00    +0.043 H 
ATOM     50 H50  LIG A   1      23.821  18.565  14.350  1.00 20.00    +0.028 H 
ATOM     51 H51  LIG A   1      24.385  17.216  13.362  1.00 20.00    +0.028 H 
ATOM     52 H52  LIG A   1      23.610  19.981  12.282  1.00 20.00    +0.028 H 
ATOM     53 H53  LIG A   1      24.110  18.613  11.297  1.00 20.00    +0.028 H 
ATOM     54 H54  LIG A   1      21.638  18.946  11.341  1.00 20.00    +0.043 H 
ATOM     55 H55  LIG A   1      21.631  18.714  13.097  1.00 20.00    +0.043 H 
ATOM     56 H56  LIG A   1      22.491  16.732  11.085  1.00 20.00    +0.122 HD
ATOM     57 H57  LIG A   1      20.109  17.051  11.136  1.00 20.00    +0.043 H 
ATOM     58 H58  LIG A   1      20.164  16.790  12.893  1.00 20.00    +0.043 H 
ATOM     59 H59  LIG A   1      21.035  14.771  10.758  1.00 20.00    +0.030 H 
ATOM     60 H60  LIG A   1      21.195  14.524  12.496  1.00 20.00    +0.030 H 
ATOM     61 H61  LIG A   1      19.162  13.387  11.839  1.00 20.00    +0.049 H 
ATOM     62 H62  LIG A   1      18.730  14.793  12.782  1.00 20.00    +0.049 H 
ATOM     63 H63  LIG A   1      17.436  15.378  11.098  1.00 20.00    +0.160 HD
ATOM     64 H64  LIG A   1      19.878  13.016   9.667  1.00 20.00    +0.064 H 
ATOM     65 H65  LIG A   1      19.506  11.918   7.543  1.00 20.00    +0.063 H 
ATOM     66 H66  LIG A   1      19.004  10.794   5.410  1.00 20.00    +0.066 H 
ATOM     67 H67  LIG A   1      17.610  10.398   3.114  1.00 20.00    +0.066 H 
ATOM     68 H68  LIG A   1      15.491  10.538   1.790  1.00 20.00    +0.063 H 
ATOM     69 H69  LIG A   1      13.662  11.019   0.276  1.00 20.00    +0.064 H 
ATOM     70 H70  LIG A   1      11.849  14.227   0.318  1.00 20.00    +0.160 HD
ATOM     71 H71  LIG A   1      11.260  13.237  -1.565  1.00 20.00    +0.049 H 
ATOM     72 H72  LIG A   1      12.658  12.208  -1.380  1.00 20.00    +0.049 H 
ATOM     73 H73  LIG A   1      10.756  10.735  -1.552  1.00 20.00    +0.030 H 
ATOM     74 H74  LIG A   1      11.235  10.681   0.137  1.00 20.00    +0.030 H 
ATOM     75 H75  LIG A   1       8.855  10.843   0.109  1.00 20.00    +0.043 H 
ATOM     76 H76  LIG A   1       9.466  12.402   0.667  1.00 20.00    +0.043 H 
ATOM     77 H77  LIG A   1       8.532  11.682  -2.042  1.00 20.00    +0.122 HD
ATOM     78 H78  LIG A   1       6.800  13.119  -1.808  1.00 20.00    +0.043 H 
ATOM     79 H79  LIG A   1       6.809  12.137  -0.354  1.00 20.00    +0.043 H 
ATOM     80 H80  LIG A   1       7.937  13.996   0.895  1.00 20.00    +0.028 H 
ATOM     81 H81  LIG A   1       6.420  14.492   0.166  1.00 20.00    +0.028 H 
ATOM     82 H82  LIG A   1       7.653  15.552  -1.735  1.00 20.00    +0.028 H 
ATOM     83 H83  LIG A   1       9.185  15.012  -1.062  1.00 20.00    +0.028 H 
ATOM     84 H84  LIG A   1       8.818  16.394   0.980  1.00 20.00    +0.043 H 
ATOM     85 H85  LIG A   1       8.898  17.333  -0.505  1.00 20.00    +0.043 H 
ATOM     86 H86  LIG A   1       6.471  17.338  -0.515  1.00 20.00    +0.118 HD
ATOM     87 H87  LIG A   1       6.454  16.598   0.937  1.00 20.00    +0.118 HD
ATOM     88 H88  LIG A   1      12.860  14.679   2.388  1.00 20.00    +0.064 H 
ATOM     89 H89  LIG A   1      14.699  14.199   3.920  1.00 20.00    +0.063 H 
ATOM     90 H90  LIG A   1      16.023  14.366   6.878  1.00 20.00    +0.063 H 
ATOM     91 H91  LIG A   1      16.405  15.472   9.017  1.00 20.00    +0.064 H 
ATOM     92 H92  LIG A   1      15.967  13.665   2.031  1.00 20.00    +0.296 HD
ATOM     93 H93  LIG A   1      14.018  14.802   5.272  1.00 20.00    +0.055 H 
ATOM     94 H94  LIG A   1      14.393  13.050   5.267  1.00 20.00    +0.055 H 
ATOM     95 H95  LIG A   1      16.762  13.767   5.152  1.00 20.00    +0.123 HD
ATOM     96 H96  LIG A   1      15.211  14.668   7.516  1.00 20.00    +0.044 H 
ATOM     97 H97  LIG A   1      15.802  13.028   7.222  1.00 20.00    +0.044 H 
ATOM     98 H98  LIG A   1      17.309  14.155   8.786  1.00 20.00    +0.039 H 
ATOM     99 H99  LIG A   1      18.166  13.852   7.270  1.00 20.00    +0.039 H 
ATOM    100 H100 LIG A   1      17.455  16.302   6.301  1.00 20.00    +0.102 HD
ENDROOT
TORSDOF 0
                                                                                                       
ENDMDL
