ROOT
ATOM      1 N1   LIG A   1       3.188   1.383  -0.113  1.00 20.00    -0.287 NA
ATOM      2 C2   LIG A   1       3.393   0.111   0.023  1.00 20.00    +0.110 C 
ATOM      3 N3   LIG A   1       4.591  -0.398  -0.376  1.00 20.00    -0.386 NA
ATOM      4 C4   LIG A   1       2.330  -0.802   0.632  1.00 20.00    +0.075 C 
ATOM      5 N5   LIG A   1       1.039  -0.434   0.096  1.00 20.00    -0.348 NA
ATOM      6 C6   LIG A   1      -0.128  -0.904   0.659  1.00 20.00    +0.237 C 
ATOM      7 O7   LIG A   1      -0.156  -1.537   1.709  1.00 20.00    -0.273 OA
ATOM      8 C8   LIG A   1      -1.375  -0.614  -0.195  1.00 20.00    +0.087 C 
ATOM      9 C9   LIG A   1      -2.665  -0.497   0.613  1.00 20.00    -0.027 C 
ATOM     10 C10  LIG A   1      -3.319   0.789   0.127  1.00 20.00    -0.039 C 
ATOM     11 C11  LIG A   1      -2.617   1.093  -1.181  1.00 20.00    -0.004 C 
ATOM     12 N12  LIG A   1      -1.233   0.672  -0.934  1.00 20.00    -0.306 NA
ATOM     13 N13  LIG A   1     -13.624   1.388  -2.030  1.00 20.00    -0.330 NA
ATOM     14 C14  LIG A   1     -12.309   1.710  -2.574  1.00 20.00    -0.008 C 
ATOM     15 C15  LIG A   1     -11.302   0.600  -2.271  1.00 20.00    -0.040 C 
ATOM     16 C16  LIG A   1      -9.923   0.933  -2.850  1.00 20.00    -0.039 C 
ATOM     17 C17  LIG A   1      -8.896  -0.180  -2.623  1.00 20.00    -0.005 C 
ATOM     18 N18  LIG A   1      -8.633  -0.368  -1.197  1.00 20.00    -0.317 NA
ATOM     19 C19  LIG A   1      -7.688  -1.464  -0.970  1.00 20.00    -0.003 C 
ATOM     20 C20  LIG A   1      -7.440  -1.625   0.531  1.00 20.00    -0.023 C 
ATOM     21 C21  LIG A   1      -6.589  -2.853   0.856  1.00 20.00    +0.016 C 
ATOM     22 N22  LIG A   1      -5.227  -2.752   0.349  1.00 20.00    -0.385 NA
ATOM     23 C23  LIG A   1      -4.253  -1.941   0.916  1.00 20.00    +0.034 A 
ATOM     24 C24  LIG A   1      -4.362  -1.351   2.178  1.00 20.00    -0.038 A 
ATOM     25 C25  LIG A   1      -3.309  -0.606   2.731  1.00 20.00    -0.049 A 
ATOM     26 C26  LIG A   1      -2.097  -0.450   2.050  1.00 20.00    +0.017 A 
ATOM     27 C27  LIG A   1      -0.997   0.308   2.642  1.00 20.00    +0.134 A 
ATOM     28 C28  LIG A   1      -0.842   1.047   3.797  1.00 20.00    -0.015 A 
ATOM     29 C29  LIG A   1       0.495   1.517   3.806  1.00 20.00    -0.015 A 
ATOM     30 C30  LIG A   1       1.092   1.042   2.655  1.00 20.00    +0.134 A 
ATOM     31 C31  LIG A   1       2.430   1.142   2.079  1.00 20.00    +0.017 A 
ATOM     32 C32  LIG A   1       3.486   1.700   2.809  1.00 20.00    -0.049 A 
ATOM     33 C33  LIG A   1       4.778   1.783   2.267  1.00 20.00    -0.038 A 
ATOM     34 C34  LIG A   1       5.054   1.340   0.972  1.00 20.00    +0.034 A 
ATOM     35 N35  LIG A   1       6.325   1.324   0.406  1.00 20.00    -0.385 NA
ATOM     36 C36  LIG A   1       7.452   2.067   0.961  1.00 20.00    +0.016 C 
ATOM     37 C37  LIG A   1       8.247   1.206   1.944  1.00 20.00    -0.023 C 
ATOM     38 C38  LIG A   1       8.996   0.051   1.270  1.00 20.00    -0.003 C 
ATOM     39 N39  LIG A   1      10.103   0.554   0.448  1.00 20.00    -0.317 NA
ATOM     40 C40  LIG A   1      10.777  -0.517  -0.290  1.00 20.00    -0.005 C 
ATOM     41 C41  LIG A   1       9.989  -1.038  -1.499  1.00 20.00    -0.039 C 
ATOM     42 C42  LIG A   1       9.680   0.059  -2.525  1.00 20.00    -0.040 C 
ATOM     43 C43  LIG A   1       8.850  -0.435  -3.713  1.00 20.00    -0.008 C 
ATOM     44 N44  LIG A   1       9.551  -1.415  -4.536  1.00 20.00    -0.330 NA
ATOM     45 C45  LIG A   1       4.001   0.757   0.257  1.00 20.00    -0.038 A 
ATOM     46 C46  LIG A   1       2.709   0.668   0.793  1.00 20.00    -0.049 A 
ATOM     47 O47  LIG A   1       0.179   0.315   1.945  1.00 20.00    -0.456 OA
ATOM     48 C48  LIG A   1      -1.972  -1.063   0.799  1.00 20.00    -0.049 A 
ATOM     49 C49  LIG A   1      -3.029  -1.802   0.250  1.00 20.00    -0.038 A 
ATOM     50 H50  LIG A   1       2.244   1.600   0.234  1.00 20.00    +0.189 HD
ATOM     51 H51  LIG A   1       5.281   0.330  -0.534  1.00 20.00    +0.157 HD
ATOM     52 H52  LIG A   1       4.951  -1.199   0.129  1.00 20.00    +0.157 HD
ATOM     53 H53  LIG A   1       2.530  -1.847   0.377  1.00 20.00    +0.058 H 
ATOM     54 H54  LIG A   1       2.330  -0.685   1.720  1.00 20.00    +0.058 H 
ATOM     55 H55  LIG A   1       0.976  -0.105  -0.866  1.00 20.00    +0.163 HD
ATOM     56 H56  LIG A   1      -1.460  -1.431  -0.923  1.00 20.00    +0.057 H 
ATOM     57 H57  LIG A   1      -3.318  -1.352   0.398  1.00 20.00    +0.029 H 
ATOM     58 H58  LIG A   1      -2.509  -0.460   1.696  1.00 20.00    +0.029 H 
ATOM     59 H59  LIG A   1      -3.136   1.592   0.851  1.00 20.00    +0.028 H 
ATOM     60 H60  LIG A   1      -4.401   0.683   0.006  1.00 20.00    +0.028 H 
ATOM     61 H61  LIG A   1      -3.043   0.510  -2.005  1.00 20.00    +0.043 H 
ATOM     62 H62  LIG A   1      -2.674   2.153  -1.445  1.00 20.00    +0.043 H 
ATOM     63 H63  LIG A   1      -0.818   1.351  -0.289  1.00 20.00    +0.123 HD
ATOM     64 H64  LIG A   1     -13.940   0.498  -2.413  1.00 20.00    +0.118 HD
ATOM     65 H65  LIG A   1     -13.546   1.241  -1.023  1.00 20.00    +0.118 HD
ATOM     66 H66  LIG A   1     -11.969   2.658  -2.144  1.00 20.00    +0.043 H 
ATOM     67 H67  LIG A   1     -12.399   1.855  -3.656  1.00 20.00    +0.043 H 
ATOM     68 H68  LIG A   1     -11.656  -0.347  -2.696  1.00 20.00    +0.028 H 
ATOM     69 H69  LIG A   1     -11.229   0.461  -1.186  1.00 20.00    +0.028 H 
ATOM     70 H70  LIG A   1     -10.018   1.100  -3.931  1.00 20.00    +0.028 H 
ATOM     71 H71  LIG A   1      -9.555   1.872  -2.417  1.00 20.00    +0.028 H 
ATOM     72 H72  LIG A   1      -7.967   0.086  -3.142  1.00 20.00    +0.043 H 
ATOM     73 H73  LIG A   1      -9.272  -1.110  -3.067  1.00 20.00    +0.043 H 
ATOM     74 H74  LIG A   1      -8.252   0.495  -0.806  1.00 20.00    +0.122 HD
ATOM     75 H75  LIG A   1      -6.742  -1.258  -1.484  1.00 20.00    +0.043 H 
ATOM     76 H76  LIG A   1      -8.100  -2.396  -1.373  1.00 20.00    +0.043 H 
ATOM     77 H77  LIG A   1      -6.976  -0.716   0.930  1.00 20.00    +0.030 H 
ATOM     78 H78  LIG A   1      -8.404  -1.739   1.045  1.00 20.00    +0.030 H 
ATOM     79 H79  LIG A   1      -6.587  -3.038   1.936  1.00 20.00    +0.049 H 
ATOM     80 H80  LIG A   1      -7.050  -3.741   0.408  1.00 20.00    +0.049 H 
ATOM     81 H81  LIG A   1      -5.140  -2.853  -0.658  1.00 20.00    +0.160 HD
ATOM     82 H82  LIG A   1      -5.267  -1.456   2.767  1.00 20.00    +0.064 H 
ATOM     83 H83  LIG A   1      -3.454  -0.164   3.714  1.00 20.00    +0.063 H 
ATOM     84 H84  LIG A   1      -1.597   1.224   4.550  1.00 20.00    +0.066 H 
ATOM     85 H85  LIG A   1       0.964   2.126   4.566  1.00 20.00    +0.066 H 
ATOM     86 H86  LIG A   1       3.328   2.065   3.821  1.00 20.00    +0.063 H 
ATOM     87 H87  LIG A   1       5.561   2.200   2.893  1.00 20.00    +0.064 H 
ATOM     88 H88  LIG A   1       6.310   1.321  -0.611  1.00 20.00    +0.160 HD
ATOM     89 H89  LIG A   1       8.099   2.383   0.134  1.00 20.00    +0.049 H 
ATOM     90 H90  LIG A   1       7.119   2.993   1.443  1.00 20.00    +0.049 H 
ATOM     91 H91  LIG A   1       8.963   1.843   2.479  1.00 20.00    +0.030 H 
ATOM     92 H92  LIG A   1       7.579   0.787   2.705  1.00 20.00    +0.030 H 
ATOM     93 H93  LIG A   1       9.397  -0.608   2.049  1.00 20.00    +0.043 H 
ATOM     94 H94  LIG A   1       8.291  -0.538   0.676  1.00 20.00    +0.043 H 
ATOM     95 H95  LIG A   1      10.783   1.001   1.063  1.00 20.00    +0.122 HD
ATOM     96 H96  LIG A   1      11.734  -0.122  -0.653  1.00 20.00    +0.043 H 
ATOM     97 H97  LIG A   1      11.025  -1.349   0.381  1.00 20.00    +0.043 H 
ATOM     98 H98  LIG A   1       9.056  -1.513  -1.174  1.00 20.00    +0.028 H 
ATOM     99 H99  LIG A   1      10.589  -1.825  -1.971  1.00 20.00    +0.028 H 
ATOM    100 H100 LIG A   1      10.618   0.500  -2.886  1.00 20.00    +0.028 H 
ATOM    101 H101 LIG A   1       9.119   0.868  -2.042  1.00 20.00    +0.028 H 
ATOM    102 H102 LIG A   1       7.908  -0.868  -3.361  1.00 20.00    +0.043 H 
ATOM    103 H103 LIG A   1       8.592   0.421  -4.345  1.00 20.00    +0.043 H 
ATOM    104 H104 LIG A   1      10.462  -1.045  -4.806  1.00 20.00    +0.118 HD
ATOM    105 H105 LIG A   1       9.736  -2.255  -3.992  1.00 20.00    +0.118 HD
ATOM    106 H106 LIG A   1       4.177   0.351  -0.736  1.00 20.00    +0.064 H 
ATOM    107 H107 LIG A   1       1.926   0.211   0.192  1.00 20.00    +0.063 H 
ATOM    108 H108 LIG A   1      -1.043  -0.986   0.238  1.00 20.00    +0.063 H 
ATOM    109 H109 LIG A   1      -2.875  -2.284  -0.713  1.00 20.00    +0.064 H 
ENDROOT
TORSDOF 0
