MODEL 1
REMARK VINA RESULT:   -11.230      0.000      0.000
REMARK INTER + INTRA:         -11.230
REMARK INTER:                 -11.230
REMARK INTRA:                   0.000
REMARK UNBOUND:                 0.000
ROOT
ATOM      1 C1   LIG A   1      23.447  17.220   5.287  1.00 20.00    -0.060 C 
ATOM      2 C2   LIG A   1      22.427  18.053   6.085  1.00 20.00    -0.016 C 
ATOM      3 C3   LIG A   1      21.829  17.103   7.181  1.00 20.00    -0.023 C 
ATOM      4 C4   LIG A   1      21.012  17.815   8.224  1.00 20.00    -0.048 A 
ATOM      5 C5   LIG A   1      21.553  18.027   9.498  1.00 20.00    -0.058 A 
ATOM      6 C6   LIG A   1      21.087  19.083  10.270  1.00 20.00    -0.051 A 
ATOM      7 C7   LIG A   1      20.139  19.958   9.729  1.00 20.00    +0.017 A 
ATOM      8 C8   LIG A   1      19.395  19.551   8.613  1.00 20.00    -0.051 A 
ATOM      9 C9   LIG A   1      19.827  18.459   7.862  1.00 20.00    -0.058 A 
ATOM     10 C10  LIG A   1      20.107  21.371  10.162  1.00 20.00    +0.140 C 
ATOM     11 C11  LIG A   1      20.305  22.385   9.288  1.00 20.00    +0.047 C 
ATOM     12 C12  LIG A   1      20.921  22.316   7.921  1.00 20.00    +0.256 C 
ATOM     13 O13  LIG A   1      20.700  23.234   7.134  1.00 20.00    -0.269 OA
ATOM     14 N14  LIG A   1      22.002  21.446   7.817  1.00 20.00    -0.278 NA
ATOM     15 C15  LIG A   1      23.313  22.005   8.187  1.00 20.00    +0.029 C 
ATOM     16 C16  LIG A   1      23.391  22.809   9.508  1.00 20.00    -0.034 C 
ATOM     17 C17  LIG A   1      23.312  21.906  10.742  1.00 20.00    -0.034 C 
ATOM     18 C18  LIG A   1      22.967  22.604  12.073  1.00 20.00    +0.085 C 
ATOM     19 C19  LIG A   1      23.146  21.600  13.202  1.00 20.00    +0.311 C 
ATOM     20 O20  LIG A   1      22.606  20.510  13.317  1.00 20.00    -0.252 OA
ATOM     21 O21  LIG A   1      24.024  22.025  14.137  1.00 20.00    -0.481 OA
ATOM     22 C22  LIG A   1      21.636  23.337  12.231  1.00 20.00    +0.009 A 
ATOM     23 C23  LIG A   1      21.699  24.667  12.688  1.00 20.00    -0.052 A 
ATOM     24 C24  LIG A   1      20.546  25.417  12.963  1.00 20.00    -0.038 A 
ATOM     25 C25  LIG A   1      19.274  24.862  12.842  1.00 20.00    +0.038 A 
ATOM     26 N26  LIG A   1      18.089  25.564  13.035  1.00 20.00    -0.385 NA
ATOM     27 C27  LIG A   1      18.030  26.872  13.677  1.00 20.00    +0.016 C 
ATOM     28 C28  LIG A   1      18.140  26.759  15.198  1.00 20.00    -0.023 C 
ATOM     29 C29  LIG A   1      18.157  28.149  15.841  1.00 20.00    -0.003 C 
ATOM     30 N30  LIG A   1      18.129  28.025  17.300  1.00 20.00    -0.317 NA
ATOM     31 C31  LIG A   1      18.316  29.319  17.963  1.00 20.00    -0.005 C 
ATOM     32 C32  LIG A   1      17.307  29.484  19.112  1.00 20.00    -0.039 C 
ATOM     33 C33  LIG A   1      15.835  29.526  18.673  1.00 20.00    -0.040 C 
ATOM     34 C34  LIG A   1      15.468  30.672  17.725  1.00 20.00    -0.008 C 
ATOM     35 N35  LIG A   1      15.593  31.985  18.349  1.00 20.00    -0.330 NA
ATOM     36 C36  LIG A   1      19.200  23.551  12.363  1.00 20.00    +0.004 A 
ATOM     37 C37  LIG A   1      20.349  22.802  12.049  1.00 20.00    +0.133 A 
ATOM     38 O38  LIG A   1      20.101  21.539  11.551  1.00 20.00    -0.456 OA
ATOM     39 C39  LIG A   1      21.895  20.517   6.775  1.00 20.00    +0.246 C 
ATOM     40 O40  LIG A   1      20.945  20.524   5.982  1.00 20.00    -0.273 OA
ATOM     41 C41  LIG A   1      23.017  19.416   6.636  1.00 20.00    +0.088 C 
ATOM     42 N42  LIG A   1      24.045  19.960   5.717  1.00 20.00    -0.320 NA
ATOM     43 N43  LIG A   1      21.580  21.777  11.188  1.00 20.00    -0.330 NA
ATOM     44 C44  LIG A   1      21.368  23.208  10.985  1.00 20.00    -0.007 C 
ATOM     45 C45  LIG A   1      19.909  23.600  11.228  1.00 20.00    -0.029 C 
ATOM     46 C46  LIG A   1      19.503  23.595  12.704  1.00 20.00    -0.007 C 
ATOM     47 N47  LIG A   1      20.073  24.735  13.421  1.00 20.00    -0.330 NA
ATOM     48 H48  LIG A   1      23.784  17.750   4.393  1.00 20.00    +0.023 H 
ATOM     49 H49  LIG A   1      22.993  16.286   4.946  1.00 20.00    +0.023 H 
ATOM     50 H50  LIG A   1      24.323  16.972   5.895  1.00 20.00    +0.023 H 
ATOM     51 H51  LIG A   1      21.614  18.290   5.385  1.00 20.00    +0.032 H 
ATOM     52 H52  LIG A   1      22.646  16.559   7.678  1.00 20.00    +0.032 H 
ATOM     53 H53  LIG A   1      21.205  16.334   6.703  1.00 20.00    +0.032 H 
ATOM     54 H54  LIG A   1      22.417  17.464   9.837  1.00 20.00    +0.063 H 
ATOM     55 H55  LIG A   1      21.585  19.304  11.211  1.00 20.00    +0.063 H 
ATOM     56 H56  LIG A   1      18.596  20.176   8.216  1.00 20.00    +0.063 H 
ATOM     57 H57  LIG A   1      19.358  18.264   6.898  1.00 20.00    +0.063 H 
ATOM     58 H58  LIG A   1      20.209  23.421   9.598  1.00 20.00    +0.072 H 
ATOM     59 H59  LIG A   1      23.605  22.673   7.366  1.00 20.00    +0.050 H 
ATOM     60 H60  LIG A   1      24.063  21.210   8.228  1.00 20.00    +0.050 H 
ATOM     61 H61  LIG A   1      22.637  23.602   9.534  1.00 20.00    +0.029 H 
ATOM     62 H62  LIG A   1      24.360  23.325   9.531  1.00 20.00    +0.029 H 
ATOM     63 H63  LIG A   1      22.626  21.089  10.567  1.00 20.00    +0.028 H 
ATOM     64 H64  LIG A   1      24.290  21.414  10.851  1.00 20.00    +0.028 H 
ATOM     65 H65  LIG A   1      23.768  23.347  12.199  1.00 20.00    +0.047 H 
ATOM     66 H66  LIG A   1      24.016  21.313  14.812  1.00 20.00    +0.296 HD
ATOM     67 H67  LIG A   1      22.665  25.150  12.846  1.00 20.00    +0.063 H 
ATOM     68 H68  LIG A   1      20.676  26.445  13.288  1.00 20.00    +0.064 H 
ATOM     69 H69  LIG A   1      17.293  24.966  13.246  1.00 20.00    +0.160 HD
ATOM     70 H70  LIG A   1      17.060  27.318  13.425  1.00 20.00    +0.049 H 
ATOM     71 H71  LIG A   1      18.788  27.550  13.266  1.00 20.00    +0.049 H 
ATOM     72 H72  LIG A   1      19.053  26.214  15.477  1.00 20.00    +0.030 H 
ATOM     73 H73  LIG A   1      17.295  26.172  15.579  1.00 20.00    +0.030 H 
ATOM     74 H74  LIG A   1      19.060  28.683  15.517  1.00 20.00    +0.043 H 
ATOM     75 H75  LIG A   1      17.279  28.726  15.510  1.00 20.00    +0.043 H 
ATOM     76 H76  LIG A   1      18.866  27.372  17.604  1.00 20.00    +0.122 HD
ATOM     77 H77  LIG A   1      18.215  30.154  17.264  1.00 20.00    +0.043 H 
ATOM     78 H78  LIG A   1      19.338  29.366  18.365  1.00 20.00    +0.043 H 
ATOM     79 H79  LIG A   1      17.557  30.391  19.678  1.00 20.00    +0.028 H 
ATOM     80 H80  LIG A   1      17.431  28.654  19.820  1.00 20.00    +0.028 H 
ATOM     81 H81  LIG A   1      15.204  29.582  19.572  1.00 20.00    +0.028 H 
ATOM     82 H82  LIG A   1      15.575  28.577  18.181  1.00 20.00    +0.028 H 
ATOM     83 H83  LIG A   1      14.429  30.550  17.397  1.00 20.00    +0.043 H 
ATOM     84 H84  LIG A   1      16.082  30.647  16.818  1.00 20.00    +0.043 H 
ATOM     85 H85  LIG A   1      16.531  32.126  18.715  1.00 20.00    +0.118 HD
ATOM     86 H86  LIG A   1      14.957  32.042  19.146  1.00 20.00    +0.118 HD
ATOM     87 H87  LIG A   1      18.225  23.097  12.198  1.00 20.00    +0.068 H 
ATOM     88 H88  LIG A   1      23.481  19.231   7.609  1.00 20.00    +0.057 H 
ATOM     89 H89  LIG A   1      24.316  20.900   5.979  1.00 20.00    +0.119 HD
ATOM     90 H90  LIG A   1      24.884  19.384   5.763  1.00 20.00    +0.119 HD
ATOM     91 H91  LIG A   1      21.054  21.251  10.493  1.00 20.00    +0.118 HD
ATOM     92 H92  LIG A   1      22.562  21.562  11.024  1.00 20.00    +0.118 HD
ATOM     93 H93  LIG A   1      22.039  23.772  11.639  1.00 20.00    +0.043 H 
ATOM     94 H94  LIG A   1      21.639  23.456   9.952  1.00 20.00    +0.043 H 
ATOM     95 H95  LIG A   1      19.727  24.595  10.800  1.00 20.00    +0.029 H 
ATOM     96 H96  LIG A   1      19.252  22.913  10.679  1.00 20.00    +0.029 H 
ATOM     97 H97  LIG A   1      18.411  23.652  12.777  1.00 20.00    +0.043 H 
ATOM     98 H98  LIG A   1      19.816  22.665  13.190  1.00 20.00    +0.043 H 
ATOM     99 H99  LIG A   1      19.787  24.689  14.397  1.00 20.00    +0.118 HD
ATOM    100 H100 LIG A   1      19.681  25.600  13.050  1.00 20.00    +0.118 HD
ENDROOT
TORSDOF 0
                                                                                                       
ENDMDL
MODEL 2
REMARK VINA RESULT:   -10.920      3.237     10.684
REMARK INTER + INTRA:         -10.920
REMARK INTER:                 -10.920
REMARK INTRA:                   0.000
REMARK UNBOUND:                 0.000
ROOT
ATOM      1 C1   LIG A   1      22.662  28.298  15.976  1.00 20.00    -0.060 C 
ATOM      2 C2   LIG A   1      21.900  27.068  15.449  1.00 20.00    -0.016 C 
ATOM      3 C3   LIG A   1      20.606  27.608  14.746  1.00 20.00    -0.023 C 
ATOM      4 C4   LIG A   1      19.874  26.570  13.940  1.00 20.00    -0.048 A 
ATOM      5 C5   LIG A   1      19.966  26.590  12.543  1.00 20.00    -0.058 A 
ATOM      6 C6   LIG A   1      19.770  25.416  11.830  1.00 20.00    -0.051 A 
ATOM      7 C7   LIG A   1      19.556  24.221  12.526  1.00 20.00    +0.017 A 
ATOM      8 C8   LIG A   1      19.154  24.278  13.868  1.00 20.00    -0.051 A 
ATOM      9 C9   LIG A   1      19.299  25.468  14.578  1.00 20.00    -0.058 A 
ATOM     10 C10  LIG A   1      19.994  22.936  11.941  1.00 20.00    +0.140 C 
ATOM     11 C11  LIG A   1      20.908  22.151  12.557  1.00 20.00    +0.047 C 
ATOM     12 C12  LIG A   1      21.868  22.534  13.645  1.00 20.00    +0.256 C 
ATOM     13 O13  LIG A   1      22.362  21.641  14.330  1.00 20.00    -0.269 OA
ATOM     14 N14  LIG A   1      22.421  23.805  13.508  1.00 20.00    -0.278 NA
ATOM     15 C15  LIG A   1      23.621  23.894  12.660  1.00 20.00    +0.029 C 
ATOM     16 C16  LIG A   1      23.572  23.173  11.289  1.00 20.00    -0.034 C 
ATOM     17 C17  LIG A   1      22.679  23.904  10.282  1.00 20.00    -0.034 C 
ATOM     18 C18  LIG A   1      22.231  23.086   9.054  1.00 20.00    +0.085 C 
ATOM     19 C19  LIG A   1      21.545  24.026   8.076  1.00 20.00    +0.311 C 
ATOM     20 O20  LIG A   1      20.581  24.747   8.291  1.00 20.00    -0.252 OA
ATOM     21 O21  LIG A   1      22.129  24.020   6.857  1.00 20.00    -0.481 OA
ATOM     22 C22  LIG A   1      21.393  21.823   9.241  1.00 20.00    +0.009 A 
ATOM     23 C23  LIG A   1      21.865  20.654   8.613  1.00 20.00    -0.052 A 
ATOM     24 C24  LIG A   1      21.140  19.453   8.630  1.00 20.00    -0.038 A 
ATOM     25 C25  LIG A   1      19.886  19.371   9.232  1.00 20.00    +0.038 A 
ATOM     26 N26  LIG A   1      19.144  18.200   9.343  1.00 20.00    -0.385 NA
ATOM     27 C27  LIG A   1      19.440  16.990   8.584  1.00 20.00    +0.016 C 
ATOM     28 C28  LIG A   1      18.948  17.095   7.140  1.00 20.00    -0.023 C 
ATOM     29 C29  LIG A   1      19.343  15.847   6.345  1.00 20.00    -0.003 C 
ATOM     30 N30  LIG A   1      18.752  15.900   5.005  1.00 20.00    -0.317 NA
ATOM     31 C31  LIG A   1      19.239  14.814   4.149  1.00 20.00    -0.005 C 
ATOM     32 C32  LIG A   1      18.072  14.174   3.380  1.00 20.00    -0.039 C 
ATOM     33 C33  LIG A   1      17.025  13.478   4.265  1.00 20.00    -0.040 C 
ATOM     34 C34  LIG A   1      17.554  12.320   5.116  1.00 20.00    -0.008 C 
ATOM     35 N35  LIG A   1      18.011  11.190   4.315  1.00 20.00    -0.330 NA
ATOM     36 C36  LIG A   1      19.422  20.518   9.882  1.00 20.00    +0.004 A 
ATOM     37 C37  LIG A   1      20.157  21.717   9.903  1.00 20.00    +0.133 A 
ATOM     38 O38  LIG A   1      19.575  22.742  10.620  1.00 20.00    -0.456 OA
ATOM     39 C39  LIG A   1      22.292  24.613  14.644  1.00 20.00    +0.246 C 
ATOM     40 O40  LIG A   1      21.787  24.198  15.694  1.00 20.00    -0.273 OA
ATOM     41 C41  LIG A   1      22.791  26.108  14.557  1.00 20.00    +0.088 C 
ATOM     42 N42  LIG A   1      24.202  26.121  15.009  1.00 20.00    -0.320 NA
ATOM     43 N43  LIG A   1      21.032  23.216  10.446  1.00 20.00    -0.330 NA
ATOM     44 C44  LIG A   1      21.552  21.852  10.512  1.00 20.00    -0.007 C 
ATOM     45 C45  LIG A   1      20.429  20.831  10.706  1.00 20.00    -0.029 C 
ATOM     46 C46  LIG A   1      19.572  20.606   9.458  1.00 20.00    -0.007 C 
ATOM     47 N47  LIG A   1      20.290  19.830   8.448  1.00 20.00    -0.330 NA
ATOM     48 H48  LIG A   1      23.487  28.008  16.631  1.00 20.00    +0.023 H 
ATOM     49 H49  LIG A   1      21.998  28.932  16.569  1.00 20.00    +0.023 H 
ATOM     50 H50  LIG A   1      23.066  28.900  15.156  1.00 20.00    +0.023 H 
ATOM     51 H51  LIG A   1      21.576  26.508  16.337  1.00 20.00    +0.032 H 
ATOM     52 H52  LIG A   1      20.870  28.449  14.089  1.00 20.00    +0.032 H 
ATOM     53 H53  LIG A   1      19.921  28.022  15.501  1.00 20.00    +0.032 H 
ATOM     54 H54  LIG A   1      20.318  27.475  12.020  1.00 20.00    +0.063 H 
ATOM     55 H55  LIG A   1      19.948  25.417  10.758  1.00 20.00    +0.063 H 
ATOM     56 H56  LIG A   1      18.905  23.370  14.415  1.00 20.00    +0.063 H 
ATOM     57 H57  LIG A   1      19.164  25.457  15.659  1.00 20.00    +0.063 H 
ATOM     58 H58  LIG A   1      21.171  21.177  12.158  1.00 20.00    +0.072 H 
ATOM     59 H59  LIG A   1      24.442  23.457  13.243  1.00 20.00    +0.050 H 
ATOM     60 H60  LIG A   1      23.881  24.942  12.484  1.00 20.00    +0.050 H 
ATOM     61 H61  LIG A   1      23.285  22.124  11.403  1.00 20.00    +0.029 H 
ATOM     62 H62  LIG A   1      24.592  23.156  10.883  1.00 20.00    +0.029 H 
ATOM     63 H63  LIG A   1      21.816  24.324  10.780  1.00 20.00    +0.028 H 
ATOM     64 H64  LIG A   1      23.237  24.784   9.928  1.00 20.00    +0.028 H 
ATOM     65 H65  LIG A   1      23.175  22.786   8.575  1.00 20.00    +0.047 H 
ATOM     66 H66  LIG A   1      21.575  24.629   6.325  1.00 20.00    +0.296 HD
ATOM     67 H67  LIG A   1      22.820  20.660   8.086  1.00 20.00    +0.063 H 
ATOM     68 H68  LIG A   1      21.582  18.588   8.145  1.00 20.00    +0.064 H 
ATOM     69 H69  LIG A   1      18.149  18.363   9.484  1.00 20.00    +0.160 HD
ATOM     70 H70  LIG A   1      18.919  16.159   9.075  1.00 20.00    +0.049 H 
ATOM     71 H71  LIG A   1      20.508  16.745   8.631  1.00 20.00    +0.049 H 
ATOM     72 H72  LIG A   1      19.369  17.988   6.656  1.00 20.00    +0.030 H 
ATOM     73 H73  LIG A   1      17.858  17.220   7.138  1.00 20.00    +0.030 H 
ATOM     74 H74  LIG A   1      20.438  15.793   6.282  1.00 20.00    +0.043 H 
ATOM     75 H75  LIG A   1      18.983  14.944   6.863  1.00 20.00    +0.043 H 
ATOM     76 H76  LIG A   1      18.971  16.808   4.569  1.00 20.00    +0.122 HD
ATOM     77 H77  LIG A   1      19.766  14.047   4.724  1.00 20.00    +0.043 H 
ATOM     78 H78  LIG A   1      19.966  15.226   3.435  1.00 20.00    +0.043 H 
ATOM     79 H79  LIG A   1      18.477  13.463   2.647  1.00 20.00    +0.028 H 
ATOM     80 H80  LIG A   1      17.564  14.947   2.789  1.00 20.00    +0.028 H 
ATOM     81 H81  LIG A   1      16.211  13.113   3.621  1.00 20.00    +0.028 H 
ATOM     82 H82  LIG A   1      16.569  14.219   4.938  1.00 20.00    +0.028 H 
ATOM     83 H83  LIG A   1      16.755  11.965   5.778  1.00 20.00    +0.043 H 
ATOM     84 H84  LIG A   1      18.370  12.649   5.769  1.00 20.00    +0.043 H 
ATOM     85 H85  LIG A   1      18.722  11.481   3.647  1.00 20.00    +0.118 HD
ATOM     86 H86  LIG A   1      17.230  10.825   3.768  1.00 20.00    +0.118 HD
ATOM     87 H87  LIG A   1      18.474  20.482  10.415  1.00 20.00    +0.068 H 
ATOM     88 H88  LIG A   1      22.752  26.455  13.520  1.00 20.00    +0.057 H 
ATOM     89 H89  LIG A   1      24.745  25.400  14.548  1.00 20.00    +0.119 HD
ATOM     90 H90  LIG A   1      24.630  27.014  14.771  1.00 20.00    +0.119 HD
ATOM     91 H91  LIG A   1      20.610  23.465  11.339  1.00 20.00    +0.118 HD
ATOM     92 H92  LIG A   1      21.809  23.859  10.309  1.00 20.00    +0.118 HD
ATOM     93 H93  LIG A   1      22.124  21.636   9.605  1.00 20.00    +0.043 H 
ATOM     94 H94  LIG A   1      22.247  21.786  11.357  1.00 20.00    +0.043 H 
ATOM     95 H95  LIG A   1      20.863  19.877  11.032  1.00 20.00    +0.029 H 
ATOM     96 H96  LIG A   1      19.778  21.159  11.527  1.00 20.00    +0.029 H 
ATOM     97 H97  LIG A   1      18.667  20.055   9.737  1.00 20.00    +0.043 H 
ATOM     98 H98  LIG A   1      19.255  21.562   9.027  1.00 20.00    +0.043 H 
ATOM     99 H99  LIG A   1      19.690  19.711   7.633  1.00 20.00    +0.118 HD
ATOM    100 H100 LIG A   1      20.473  18.894   8.806  1.00 20.00    +0.118 HD
ENDROOT
TORSDOF 0
                                                                                                       
ENDMDL
MODEL 3
REMARK VINA RESULT:   -10.889      2.940      5.302
REMARK INTER + INTRA:         -10.889
REMARK INTER:                 -10.889
REMARK INTRA:                   0.000
REMARK UNBOUND:                 0.000
ROOT
ATOM      1 C1   LIG A   1      22.549  12.332   3.649  1.00 20.00    -0.060 C 
ATOM      2 C2   LIG A   1      22.228  13.788   4.036  1.00 20.00    -0.016 C 
ATOM      3 C3   LIG A   1      20.726  14.033   3.654  1.00 20.00    -0.023 C 
ATOM      4 C4   LIG A   1      20.161  15.314   4.202  1.00 20.00    -0.048 A 
ATOM      5 C5   LIG A   1      19.293  15.271   5.300  1.00 20.00    -0.058 A 
ATOM      6 C6   LIG A   1      19.184  16.381   6.127  1.00 20.00    -0.051 A 
ATOM      7 C7   LIG A   1      19.997  17.494   5.888  1.00 20.00    +0.017 A 
ATOM      8 C8   LIG A   1      20.601  17.639   4.631  1.00 20.00    -0.051 A 
ATOM      9 C9   LIG A   1      20.670  16.542   3.773  1.00 20.00    -0.058 A 
ATOM     10 C10  LIG A   1      20.418  18.357   7.012  1.00 20.00    +0.140 C 
ATOM     11 C11  LIG A   1      21.723  18.523   7.328  1.00 20.00    +0.047 C 
ATOM     12 C12  LIG A   1      22.887  17.670   6.918  1.00 20.00    +0.256 C 
ATOM     13 O13  LIG A   1      24.016  18.150   6.983  1.00 20.00    -0.269 OA
ATOM     14 N14  LIG A   1      22.624  16.302   6.900  1.00 20.00    -0.278 NA
ATOM     15 C15  LIG A   1      22.788  15.601   8.185  1.00 20.00    +0.029 C 
ATOM     16 C16  LIG A   1      22.153  16.259   9.435  1.00 20.00    -0.034 C 
ATOM     17 C17  LIG A   1      20.627  16.134   9.443  1.00 20.00    -0.034 C 
ATOM     18 C18  LIG A   1      19.873  17.086  10.395  1.00 20.00    +0.085 C 
ATOM     19 C19  LIG A   1      18.410  16.672  10.427  1.00 20.00    +0.311 C 
ATOM     20 O20  LIG A   1      17.647  16.574   9.477  1.00 20.00    -0.252 OA
ATOM     21 O21  LIG A   1      17.981  16.386  11.676  1.00 20.00    -0.481 OA
ATOM     22 C22  LIG A   1      19.986  18.598  10.212  1.00 20.00    +0.009 A 
ATOM     23 C23  LIG A   1      20.353  19.345  11.348  1.00 20.00    -0.052 A 
ATOM     24 C24  LIG A   1      20.400  20.747  11.336  1.00 20.00    -0.038 A 
ATOM     25 C25  LIG A   1      20.036  21.475  10.204  1.00 20.00    +0.038 A 
ATOM     26 N26  LIG A   1      20.121  22.859  10.101  1.00 20.00    -0.385 NA
ATOM     27 C27  LIG A   1      20.308  23.737  11.251  1.00 20.00    +0.016 C 
ATOM     28 C28  LIG A   1      19.005  23.935  12.026  1.00 20.00    -0.023 C 
ATOM     29 C29  LIG A   1      19.246  24.794  13.272  1.00 20.00    -0.003 C 
ATOM     30 N30  LIG A   1      17.971  25.085  13.931  1.00 20.00    -0.317 NA
ATOM     31 C31  LIG A   1      18.162  25.759  15.220  1.00 20.00    -0.005 C 
ATOM     32 C32  LIG A   1      17.183  26.935  15.361  1.00 20.00    -0.039 C 
ATOM     33 C33  LIG A   1      17.389  28.068  14.341  1.00 20.00    -0.040 C 
ATOM     34 C34  LIG A   1      18.759  28.750  14.390  1.00 20.00    -0.008 C 
ATOM     35 N35  LIG A   1      18.986  29.476  15.636  1.00 20.00    -0.330 NA
ATOM     36 C36  LIG A   1      19.698  20.742   9.063  1.00 20.00    +0.004 A 
ATOM     37 C37  LIG A   1      19.683  19.336   9.054  1.00 20.00    +0.133 A 
ATOM     38 O38  LIG A   1      19.365  18.767   7.837  1.00 20.00    -0.456 OA
ATOM     39 C39  LIG A   1      22.956  15.668   5.697  1.00 20.00    +0.246 C 
ATOM     40 O40  LIG A   1      23.498  16.271   4.762  1.00 20.00    -0.273 OA
ATOM     41 C41  LIG A   1      22.599  14.140   5.535  1.00 20.00    +0.088 C 
ATOM     42 N42  LIG A   1      23.783  13.369   5.984  1.00 20.00    -0.320 NA
ATOM     43 N43  LIG A   1      19.976  17.592   8.627  1.00 20.00    -0.330 NA
ATOM     44 C44  LIG A   1      20.910  18.467   9.333  1.00 20.00    -0.007 C 
ATOM     45 C45  LIG A   1      20.747  19.926   8.902  1.00 20.00    -0.029 C 
ATOM     46 C46  LIG A   1      19.479  20.594   9.438  1.00 20.00    -0.007 C 
ATOM     47 N47  LIG A   1      19.587  20.885  10.867  1.00 20.00    -0.330 NA
ATOM     48 H48  LIG A   1      23.620  12.127   3.718  1.00 20.00    +0.023 H 
ATOM     49 H49  LIG A   1      22.259  12.140   2.613  1.00 20.00    +0.023 H 
ATOM     50 H50  LIG A   1      22.018  11.621   4.290  1.00 20.00    +0.023 H 
ATOM     51 H51  LIG A   1      22.836  14.419   3.374  1.00 20.00    +0.032 H 
ATOM     52 H52  LIG A   1      20.115  13.191   4.012  1.00 20.00    +0.032 H 
ATOM     53 H53  LIG A   1      20.619  14.035   2.560  1.00 20.00    +0.032 H 
ATOM     54 H54  LIG A   1      18.808  14.344   5.592  1.00 20.00    +0.063 H 
ATOM     55 H55  LIG A   1      18.591  16.303   7.035  1.00 20.00    +0.063 H 
ATOM     56 H56  LIG A   1      21.177  18.530   4.387  1.00 20.00    +0.063 H 
ATOM     57 H57  LIG A   1      21.299  16.605   2.886  1.00 20.00    +0.063 H 
ATOM     58 H58  LIG A   1      22.028  19.214   8.108  1.00 20.00    +0.072 H 
ATOM     59 H59  LIG A   1      23.870  15.523   8.356  1.00 20.00    +0.050 H 
ATOM     60 H60  LIG A   1      22.406  14.579   8.107  1.00 20.00    +0.050 H 
ATOM     61 H61  LIG A   1      22.478  17.298   9.544  1.00 20.00    +0.029 H 
ATOM     62 H62  LIG A   1      22.538  15.737  10.321  1.00 20.00    +0.029 H 
ATOM     63 H63  LIG A   1      20.236  16.231   8.440  1.00 20.00    +0.028 H 
ATOM     64 H64  LIG A   1      20.385  15.098   9.725  1.00 20.00    +0.028 H 
ATOM     65 H65  LIG A   1      20.278  16.844  11.388  1.00 20.00    +0.047 H 
ATOM     66 H66  LIG A   1      17.031  16.175  11.559  1.00 20.00    +0.296 HD
ATOM     67 H67  LIG A   1      20.607  18.840  12.280  1.00 20.00    +0.063 H 
ATOM     68 H68  LIG A   1      20.716  21.251  12.244  1.00 20.00    +0.064 H 
ATOM     69 H69  LIG A   1      19.519  23.250   9.379  1.00 20.00    +0.160 HD
ATOM     70 H70  LIG A   1      20.643  24.710  10.870  1.00 20.00    +0.049 H 
ATOM     71 H71  LIG A   1      21.114  23.375  11.899  1.00 20.00    +0.049 H 
ATOM     72 H72  LIG A   1      18.586  22.964  12.325  1.00 20.00    +0.030 H 
ATOM     73 H73  LIG A   1      18.264  24.410  11.373  1.00 20.00    +0.030 H 
ATOM     74 H74  LIG A   1      19.919  24.256  13.953  1.00 20.00    +0.043 H 
ATOM     75 H75  LIG A   1      19.730  25.741  12.986  1.00 20.00    +0.043 H 
ATOM     76 H76  LIG A   1      17.449  24.208  14.075  1.00 20.00    +0.122 HD
ATOM     77 H77  LIG A   1      19.188  26.117  15.344  1.00 20.00    +0.043 H 
ATOM     78 H78  LIG A   1      17.982  25.035  16.027  1.00 20.00    +0.043 H 
ATOM     79 H79  LIG A   1      17.249  27.333  16.382  1.00 20.00    +0.028 H 
ATOM     80 H80  LIG A   1      16.156  26.562  15.257  1.00 20.00    +0.028 H 
ATOM     81 H81  LIG A   1      16.601  28.821  14.493  1.00 20.00    +0.028 H 
ATOM     82 H82  LIG A   1      17.238  27.673  13.326  1.00 20.00    +0.028 H 
ATOM     83 H83  LIG A   1      18.835  29.466  13.563  1.00 20.00    +0.043 H 
ATOM     84 H84  LIG A   1      19.568  28.026  14.246  1.00 20.00    +0.043 H 
ATOM     85 H85  LIG A   1      18.876  28.862  16.439  1.00 20.00    +0.118 HD
ATOM     86 H86  LIG A   1      18.283  30.211  15.732  1.00 20.00    +0.118 HD
ATOM     87 H87  LIG A   1      19.464  21.269   8.141  1.00 20.00    +0.068 H 
ATOM     88 H88  LIG A   1      21.751  13.884   6.177  1.00 20.00    +0.057 H 
ATOM     89 H89  LIG A   1      24.120  13.697   6.881  1.00 20.00    +0.119 HD
ATOM     90 H90  LIG A   1      23.529  12.389   6.100  1.00 20.00    +0.119 HD
ATOM     91 H91  LIG A   1      20.194  17.591   7.632  1.00 20.00    +0.118 HD
ATOM     92 H92  LIG A   1      20.113  16.636   8.949  1.00 20.00    +0.118 HD
ATOM     93 H93  LIG A   1      20.764  18.360  10.412  1.00 20.00    +0.043 H 
ATOM     94 H94  LIG A   1      21.930  18.138   9.110  1.00 20.00    +0.043 H 
ATOM     95 H95  LIG A   1      21.628  20.497   9.225  1.00 20.00    +0.029 H 
ATOM     96 H96  LIG A   1      20.740  19.982   7.806  1.00 20.00    +0.029 H 
ATOM     97 H97  LIG A   1      19.316  21.538   8.905  1.00 20.00    +0.043 H 
ATOM     98 H98  LIG A   1      18.602  19.962   9.259  1.00 20.00    +0.043 H 
ATOM     99 H99  LIG A   1      18.722  21.319  11.183  1.00 20.00    +0.118 HD
ATOM    100 H100 LIG A   1      20.323  21.573  11.018  1.00 20.00    +0.118 HD
ENDROOT
TORSDOF 0
                                                                                                       
ENDMDL
MODEL 4
REMARK VINA RESULT:   -10.499      2.011      2.924
REMARK INTER + INTRA:         -10.499
REMARK INTER:                 -10.499
REMARK INTRA:                   0.000
REMARK UNBOUND:                 0.000
ROOT
ATOM      1 C1   LIG A   1      24.574  19.928   7.411  1.00 20.00    -0.060 C 
ATOM      2 C2   LIG A   1      23.344  20.518   8.125  1.00 20.00    -0.016 C 
ATOM      3 C3   LIG A   1      22.820  19.412   9.106  1.00 20.00    -0.023 C 
ATOM      4 C4   LIG A   1      21.785  19.903  10.081  1.00 20.00    -0.048 A 
ATOM      5 C5   LIG A   1      22.145  20.126  11.415  1.00 20.00    -0.058 A 
ATOM      6 C6   LIG A   1      21.420  21.034  12.175  1.00 20.00    -0.051 A 
ATOM      7 C7   LIG A   1      20.389  21.761  11.570  1.00 20.00    +0.017 A 
ATOM      8 C8   LIG A   1      19.849  21.300  10.362  1.00 20.00    -0.051 A 
ATOM      9 C9   LIG A   1      20.546  20.350   9.617  1.00 20.00    -0.058 A 
ATOM     10 C10  LIG A   1      20.057  23.117  12.057  1.00 20.00    +0.140 C 
ATOM     11 C11  LIG A   1      20.157  24.202  11.255  1.00 20.00    +0.047 C 
ATOM     12 C12  LIG A   1      20.912  24.328   9.964  1.00 20.00    +0.256 C 
ATOM     13 O13  LIG A   1      20.610  25.240   9.197  1.00 20.00    -0.269 OA
ATOM     14 N14  LIG A   1      22.138  23.669   9.944  1.00 20.00    -0.278 NA
ATOM     15 C15  LIG A   1      23.281  24.425  10.481  1.00 20.00    +0.029 C 
ATOM     16 C16  LIG A   1      23.076  25.147  11.836  1.00 20.00    -0.034 C 
ATOM     17 C17  LIG A   1      23.037  24.168  13.014  1.00 20.00    -0.034 C 
ATOM     18 C18  LIG A   1      22.437  24.711  14.327  1.00 20.00    +0.085 C 
ATOM     19 C19  LIG A   1      22.679  23.686  15.424  1.00 20.00    +0.311 C 
ATOM     20 O20  LIG A   1      22.336  22.512  15.431  1.00 20.00    -0.252 OA
ATOM     21 O21  LIG A   1      23.365  24.199  16.469  1.00 20.00    -0.481 OA
ATOM     22 C22  LIG A   1      20.986  25.187  14.366  1.00 20.00    +0.009 A 
ATOM     23 C23  LIG A   1      20.760  26.477  14.885  1.00 20.00    -0.052 A 
ATOM     24 C24  LIG A   1      19.468  26.995  15.061  1.00 20.00    -0.038 A 
ATOM     25 C25  LIG A   1      18.337  26.233  14.775  1.00 20.00    +0.038 A 
ATOM     26 N26  LIG A   1      17.032  26.703  14.865  1.00 20.00    -0.385 NA
ATOM     27 C27  LIG A   1      16.671  27.938  15.552  1.00 20.00    +0.016 C 
ATOM     28 C28  LIG A   1      16.644  27.751  17.070  1.00 20.00    -0.023 C 
ATOM     29 C29  LIG A   1      16.343  29.080  17.770  1.00 20.00    -0.003 C 
ATOM     30 N30  LIG A   1      16.189  28.862  19.210  1.00 20.00    -0.317 NA
ATOM     31 C31  LIG A   1      16.070  30.125  19.945  1.00 20.00    -0.005 C 
ATOM     32 C32  LIG A   1      14.936  30.038  20.980  1.00 20.00    -0.039 C 
ATOM     33 C33  LIG A   1      13.533  29.849  20.381  1.00 20.00    -0.040 C 
ATOM     34 C34  LIG A   1      13.064  30.970  19.449  1.00 20.00    -0.008 C 
ATOM     35 N35  LIG A   1      12.884  32.243  20.139  1.00 20.00    -0.330 NA
ATOM     36 C36  LIG A   1      18.551  24.962  14.234  1.00 20.00    +0.004 A 
ATOM     37 C37  LIG A   1      19.843  24.448  14.019  1.00 20.00    +0.133 A 
ATOM     38 O38  LIG A   1      19.879  23.194  13.443  1.00 20.00    -0.456 OA
ATOM     39 C39  LIG A   1      22.307  22.802   8.857  1.00 20.00    +0.246 C 
ATOM     40 O40  LIG A   1      21.458  22.692   7.964  1.00 20.00    -0.273 OA
ATOM     41 C41  LIG A   1      23.618  21.927   8.797  1.00 20.00    +0.088 C 
ATOM     42 N42  LIG A   1      24.619  22.698   8.023  1.00 20.00    -0.320 NA
ATOM     43 N43  LIG A   1      21.321  23.710  13.258  1.00 20.00    -0.330 NA
ATOM     44 C44  LIG A   1      20.874  25.092  13.094  1.00 20.00    -0.007 C 
ATOM     45 C45  LIG A   1      19.352  25.206  13.189  1.00 20.00    -0.029 C 
ATOM     46 C46  LIG A   1      18.805  25.038  14.609  1.00 20.00    -0.007 C 
ATOM     47 N47  LIG A   1      19.082  26.213  15.434  1.00 20.00    -0.330 NA
ATOM     48 H48  LIG A   1      24.900  20.564   6.584  1.00 20.00    +0.023 H 
ATOM     49 H49  LIG A   1      24.334  18.952   6.982  1.00 20.00    +0.023 H 
ATOM     50 H50  LIG A   1      25.414  19.800   8.102  1.00 20.00    +0.023 H 
ATOM     51 H51  LIG A   1      22.578  20.651   7.350  1.00 20.00    +0.032 H 
ATOM     52 H52  LIG A   1      23.666  18.989   9.667  1.00 20.00    +0.032 H 
ATOM     53 H53  LIG A   1      22.398  18.577   8.528  1.00 20.00    +0.032 H 
ATOM     54 H54  LIG A   1      23.059  19.704  11.824  1.00 20.00    +0.063 H 
ATOM     55 H55  LIG A   1      21.770  21.280  13.174  1.00 20.00    +0.063 H 
ATOM     56 H56  LIG A   1      18.995  21.799   9.904  1.00 20.00    +0.063 H 
ATOM     57 H57  LIG A   1      20.221  20.136   8.599  1.00 20.00    +0.063 H 
ATOM     58 H58  LIG A   1      19.844  25.184  11.597  1.00 20.00    +0.072 H 
ATOM     59 H59  LIG A   1      23.529  25.184   9.727  1.00 20.00    +0.050 H 
ATOM     60 H60  LIG A   1      24.155  23.773  10.572  1.00 20.00    +0.050 H 
ATOM     61 H61  LIG A   1      22.193  25.792  11.812  1.00 20.00    +0.029 H 
ATOM     62 H62  LIG A   1      23.929  25.822  11.989  1.00 20.00    +0.029 H 
ATOM     63 H63  LIG A   1      22.532  23.256  12.728  1.00 20.00    +0.028 H 
ATOM     64 H64  LIG A   1      24.072  23.850  13.210  1.00 20.00    +0.028 H 
ATOM     65 H65  LIG A   1      23.073  25.573  14.573  1.00 20.00    +0.047 H 
ATOM     66 H66  LIG A   1      23.417  23.456  17.107  1.00 20.00    +0.296 HD
ATOM     67 H67  LIG A   1      21.601  27.111  15.170  1.00 20.00    +0.063 H 
ATOM     68 H68  LIG A   1      19.376  28.007  15.442  1.00 20.00    +0.064 H 
ATOM     69 H69  LIG A   1      16.340  25.963  14.960  1.00 20.00    +0.160 HD
ATOM     70 H70  LIG A   1      15.667  28.222  15.213  1.00 20.00    +0.049 H 
ATOM     71 H71  LIG A   1      17.332  28.762  15.258  1.00 20.00    +0.049 H 
ATOM     72 H72  LIG A   1      17.607  27.359  17.425  1.00 20.00    +0.030 H 
ATOM     73 H73  LIG A   1      15.885  27.003  17.328  1.00 20.00    +0.030 H 
ATOM     74 H74  LIG A   1      17.163  29.784  17.572  1.00 20.00    +0.043 H 
ATOM     75 H75  LIG A   1      15.414  29.513  17.367  1.00 20.00    +0.043 H 
ATOM     76 H76  LIG A   1      16.997  28.331  19.566  1.00 20.00    +0.122 HD
ATOM     77 H77  LIG A   1      15.892  30.972  19.275  1.00 20.00    +0.043 H 
ATOM     78 H78  LIG A   1      17.020  30.326  20.459  1.00 20.00    +0.043 H 
ATOM     79 H79  LIG A   1      14.959  30.939  21.609  1.00 20.00    +0.028 H 
ATOM     80 H80  LIG A   1      15.135  29.201  21.661  1.00 20.00    +0.028 H 
ATOM     81 H81  LIG A   1      12.814  29.738  21.206  1.00 20.00    +0.028 H 
ATOM     82 H82  LIG A   1      13.501  28.902  19.823  1.00 20.00    +0.028 H 
ATOM     83 H83  LIG A   1      12.102  30.688  19.002  1.00 20.00    +0.043 H 
ATOM     84 H84  LIG A   1      13.761  31.110  18.616  1.00 20.00    +0.043 H 
ATOM     85 H85  LIG A   1      13.739  32.523  20.613  1.00 20.00    +0.118 HD
ATOM     86 H86  LIG A   1      12.170  32.138  20.861  1.00 20.00    +0.118 HD
ATOM     87 H87  LIG A   1      17.696  24.356  13.943  1.00 20.00    +0.068 H 
ATOM     88 H88  LIG A   1      24.006  21.766   9.807  1.00 20.00    +0.057 H 
ATOM     89 H89  LIG A   1      24.687  23.653   8.354  1.00 20.00    +0.119 HD
ATOM     90 H90  LIG A   1      25.540  22.277   8.137  1.00 20.00    +0.119 HD
ATOM     91 H91  LIG A   1      20.972  23.144  12.486  1.00 20.00    +0.118 HD
ATOM     92 H92  LIG A   1      22.336  23.682  13.195  1.00 20.00    +0.118 HD
ATOM     93 H93  LIG A   1      21.362  25.723  13.843  1.00 20.00    +0.043 H 
ATOM     94 H94  LIG A   1      21.200  25.447  12.110  1.00 20.00    +0.043 H 
ATOM     95 H95  LIG A   1      19.037  26.178  12.787  1.00 20.00    +0.029 H 
ATOM     96 H96  LIG A   1      18.889  24.450  12.541  1.00 20.00    +0.029 H 
ATOM     97 H97  LIG A   1      17.719  24.898  14.562  1.00 20.00    +0.043 H 
ATOM     98 H98  LIG A   1      19.230  24.148  15.086  1.00 20.00    +0.043 H 
ATOM     99 H99  LIG A   1      18.711  26.057  16.369  1.00 20.00    +0.118 HD
ATOM    100 H100 LIG A   1      18.581  27.017  15.059  1.00 20.00    +0.118 HD
ENDROOT
TORSDOF 0
                                                                                                       
ENDMDL
MODEL 5
REMARK VINA RESULT:   -10.290      4.462     11.539
REMARK INTER + INTRA:         -10.290
REMARK INTER:                 -10.290
REMARK INTRA:                   0.000
REMARK UNBOUND:                 0.000
ROOT
ATOM      1 C1   LIG A   1      23.898  24.608  13.905  1.00 20.00    -0.060 C 
ATOM      2 C2   LIG A   1      22.809  23.824  13.150  1.00 20.00    -0.016 C 
ATOM      3 C3   LIG A   1      22.262  24.778  12.031  1.00 20.00    -0.023 C 
ATOM      4 C4   LIG A   1      21.381  24.092  11.024  1.00 20.00    -0.048 A 
ATOM      5 C5   LIG A   1      21.884  23.802   9.750  1.00 20.00    -0.058 A 
ATOM      6 C6   LIG A   1      21.333  22.757   9.020  1.00 20.00    -0.051 A 
ATOM      7 C7   LIG A   1      20.335  21.969   9.603  1.00 20.00    +0.017 A 
ATOM      8 C8   LIG A   1      19.639  22.464  10.715  1.00 20.00    -0.051 A 
ATOM      9 C9   LIG A   1      20.159  23.545  11.423  1.00 20.00    -0.058 A 
ATOM     10 C10  LIG A   1      20.196  20.548   9.218  1.00 20.00    +0.140 C 
ATOM     11 C11  LIG A   1      20.337  19.552  10.123  1.00 20.00    +0.047 C 
ATOM     12 C12  LIG A   1      20.978  19.621  11.477  1.00 20.00    +0.256 C 
ATOM     13 O13  LIG A   1      20.706  18.747  12.298  1.00 20.00    -0.269 OA
ATOM     14 N14  LIG A   1      22.120  20.416  11.538  1.00 20.00    -0.278 NA
ATOM     15 C15  LIG A   1      23.382  19.754  11.169  1.00 20.00    +0.029 C 
ATOM     16 C16  LIG A   1      23.381  18.903   9.874  1.00 20.00    -0.034 C 
ATOM     17 C17  LIG A   1      23.346  19.770   8.612  1.00 20.00    -0.034 C 
ATOM     18 C18  LIG A   1      22.932  19.055   7.310  1.00 20.00    +0.085 C 
ATOM     19 C19  LIG A   1      23.163  20.006   6.146  1.00 20.00    +0.311 C 
ATOM     20 O20  LIG A   1      22.699  21.128   6.002  1.00 20.00    -0.252 OA
ATOM     21 O21  LIG A   1      23.994  19.491   5.213  1.00 20.00    -0.481 OA
ATOM     22 C22  LIG A   1      21.551  18.414   7.195  1.00 20.00    +0.009 A 
ATOM     23 C23  LIG A   1      21.513  17.068   6.782  1.00 20.00    -0.052 A 
ATOM     24 C24  LIG A   1      20.305  16.393   6.548  1.00 20.00    -0.038 A 
ATOM     25 C25  LIG A   1      19.077  17.041   6.668  1.00 20.00    +0.038 A 
ATOM     26 N26  LIG A   1      17.844  16.418   6.515  1.00 20.00    -0.385 NA
ATOM     27 C27  LIG A   1      17.682  15.097   5.917  1.00 20.00    +0.016 C 
ATOM     28 C28  LIG A   1      17.775  15.153   4.392  1.00 20.00    -0.023 C 
ATOM     29 C29  LIG A   1      17.684  13.745   3.796  1.00 20.00    -0.003 C 
ATOM     30 N30  LIG A   1      17.641  13.824   2.334  1.00 20.00    -0.317 NA
ATOM     31 C31  LIG A   1      17.726  12.499   1.712  1.00 20.00    -0.005 C 
ATOM     32 C32  LIG A   1      16.690  12.369   0.583  1.00 20.00    -0.039 C 
ATOM     33 C33  LIG A   1      15.225  12.445   1.044  1.00 20.00    -0.040 C 
ATOM     34 C34  LIG A   1      14.795  11.359   2.035  1.00 20.00    -0.008 C 
ATOM     35 N35  LIG A   1      14.816  10.021   1.453  1.00 20.00    -0.330 NA
ATOM     36 C36  LIG A   1      19.104  18.368   7.104  1.00 20.00    +0.004 A 
ATOM     37 C37  LIG A   1      20.307  19.044   7.377  1.00 20.00    +0.133 A 
ATOM     38 O38  LIG A   1      20.156  20.337   7.835  1.00 20.00    -0.456 OA
ATOM     39 C39  LIG A   1      22.094  21.383  12.550  1.00 20.00    +0.246 C 
ATOM     40 O40  LIG A   1      21.160  21.469  13.356  1.00 20.00    -0.273 OA
ATOM     41 C41  LIG A   1      23.293  22.405  12.636  1.00 20.00    +0.088 C 
ATOM     42 N42  LIG A   1      24.295  21.821  13.558  1.00 20.00    -0.320 NA
ATOM     43 N43  LIG A   1      21.621  20.006   8.186  1.00 20.00    -0.330 NA
ATOM     44 C44  LIG A   1      21.312  18.601   8.440  1.00 20.00    -0.007 C 
ATOM     45 C45  LIG A   1      19.825  18.306   8.230  1.00 20.00    -0.029 C 
ATOM     46 C46  LIG A   1      19.397  18.291   6.761  1.00 20.00    -0.007 C 
ATOM     47 N47  LIG A   1      19.874  17.091   6.074  1.00 20.00    -0.330 NA
ATOM     48 H48  LIG A   1      24.212  24.085  14.811  1.00 20.00    +0.023 H 
ATOM     49 H49  LIG A   1      23.516  25.583  14.221  1.00 20.00    +0.023 H 
ATOM     50 H50  LIG A   1      24.780  24.774  13.277  1.00 20.00    +0.023 H 
ATOM     51 H51  LIG A   1      21.993  23.668  13.868  1.00 20.00    +0.032 H 
ATOM     52 H52  LIG A   1      23.107  25.247  11.504  1.00 20.00    +0.032 H 
ATOM     53 H53  LIG A   1      21.702  25.604  12.491  1.00 20.00    +0.032 H 
ATOM     54 H54  LIG A   1      22.781  24.291   9.380  1.00 20.00    +0.063 H 
ATOM     55 H55  LIG A   1      21.799  22.471   8.081  1.00 20.00    +0.063 H 
ATOM     56 H56  LIG A   1      18.805  21.910  11.144  1.00 20.00    +0.063 H 
ATOM     57 H57  LIG A   1      19.721  23.805  12.386  1.00 20.00    +0.063 H 
ATOM     58 H58  LIG A   1      20.164  18.516   9.848  1.00 20.00    +0.072 H 
ATOM     59 H59  LIG A   1      23.639  19.093  12.008  1.00 20.00    +0.050 H 
ATOM     60 H60  LIG A   1      24.185  20.492  11.090  1.00 20.00    +0.050 H 
ATOM     61 H61  LIG A   1      22.574  18.165   9.886  1.00 20.00    +0.029 H 
ATOM     62 H62  LIG A   1      24.312  18.320   9.855  1.00 20.00    +0.029 H 
ATOM     63 H63  LIG A   1      22.723  20.639   8.769  1.00 20.00    +0.028 H 
ATOM     64 H64  LIG A   1      24.355  20.187   8.473  1.00 20.00    +0.028 H 
ATOM     65 H65  LIG A   1      23.677  18.254   7.198  1.00 20.00    +0.047 H 
ATOM     66 H66  LIG A   1      24.025  20.179   4.515  1.00 20.00    +0.296 HD
ATOM     67 H67  LIG A   1      22.439  16.513   6.627  1.00 20.00    +0.063 H 
ATOM     68 H68  LIG A   1      20.357  15.349   6.256  1.00 20.00    +0.064 H 
ATOM     69 H69  LIG A   1      17.088  17.063   6.295  1.00 20.00    +0.160 HD
ATOM     70 H70  LIG A   1      16.687  14.730   6.198  1.00 20.00    +0.049 H 
ATOM     71 H71  LIG A   1      18.397  14.381   6.341  1.00 20.00    +0.049 H 
ATOM     72 H72  LIG A   1      18.720  15.623   4.083  1.00 20.00    +0.030 H 
ATOM     73 H73  LIG A   1      16.968  15.785   4.004  1.00 20.00    +0.030 H 
ATOM     74 H74  LIG A   1      18.553  13.159   4.126  1.00 20.00    +0.043 H 
ATOM     75 H75  LIG A   1      16.773  13.243   4.159  1.00 20.00    +0.043 H 
ATOM     76 H76  LIG A   1      18.417  14.413   1.998  1.00 20.00    +0.122 HD
ATOM     77 H77  LIG A   1      17.578  11.696   2.440  1.00 20.00    +0.043 H 
ATOM     78 H78  LIG A   1      18.736  12.366   1.298  1.00 20.00    +0.043 H 
ATOM     79 H79  LIG A   1      16.867  11.428   0.045  1.00 20.00    +0.028 H 
ATOM     80 H80  LIG A   1      16.860  13.165  -0.154  1.00 20.00    +0.028 H 
ATOM     81 H81  LIG A   1      14.578  12.404   0.156  1.00 20.00    +0.028 H 
ATOM     82 H82  LIG A   1      15.041  13.425   1.507  1.00 20.00    +0.028 H 
ATOM     83 H83  LIG A   1      13.772  11.565   2.372  1.00 20.00    +0.043 H 
ATOM     84 H84  LIG A   1      15.423  11.370   2.932  1.00 20.00    +0.043 H 
ATOM     85 H85  LIG A   1      15.737   9.802   1.079  1.00 20.00    +0.118 HD
ATOM     86 H86  LIG A   1      14.165   9.983   0.668  1.00 20.00    +0.118 HD
ATOM     87 H87  LIG A   1      18.165  18.895   7.267  1.00 20.00    +0.068 H 
ATOM     88 H88  LIG A   1      23.754  22.525  11.651  1.00 20.00    +0.057 H 
ATOM     89 H89  LIG A   1      24.496  20.855  13.324  1.00 20.00    +0.119 HD
ATOM     90 H90  LIG A   1      25.172  22.334  13.482  1.00 20.00    +0.119 HD
ATOM     91 H91  LIG A   1      21.145  20.591   8.870  1.00 20.00    +0.118 HD
ATOM     92 H92  LIG A   1      22.618  20.156   8.329  1.00 20.00    +0.118 HD
ATOM     93 H93  LIG A   1      21.931  17.970   7.795  1.00 20.00    +0.043 H 
ATOM     94 H94  LIG A   1      21.581  18.368   9.476  1.00 20.00    +0.043 H 
ATOM     95 H95  LIG A   1      19.581  17.341   8.693  1.00 20.00    +0.029 H 
ATOM     96 H96  LIG A   1      19.227  19.055   8.765  1.00 20.00    +0.029 H 
ATOM     97 H97  LIG A   1      18.303  18.309   6.704  1.00 20.00    +0.043 H 
ATOM     98 H98  LIG A   1      19.767  19.181   6.240  1.00 20.00    +0.043 H 
ATOM     99 H99  LIG A   1      19.576  17.126   5.101  1.00 20.00    +0.118 HD
ATOM    100 H100 LIG A   1      19.429  16.269   6.479  1.00 20.00    +0.118 HD
ENDROOT
TORSDOF 0
                                                                                                       
ENDMDL
MODEL 6
REMARK VINA RESULT:   -10.247      2.126      2.854
REMARK INTER + INTRA:         -10.247
REMARK INTER:                 -10.247
REMARK INTRA:                   0.000
REMARK UNBOUND:                 0.000
ROOT
ATOM      1 C1   LIG A   1      21.363  13.793   5.079  1.00 20.00    -0.060 C 
ATOM      2 C2   LIG A   1      20.648  14.876   5.908  1.00 20.00    -0.016 C 
ATOM      3 C3   LIG A   1      20.154  14.181   7.225  1.00 20.00    -0.023 C 
ATOM      4 C4   LIG A   1      19.668  15.141   8.274  1.00 20.00    -0.048 A 
ATOM      5 C5   LIG A   1      20.474  15.417   9.385  1.00 20.00    -0.058 A 
ATOM      6 C6   LIG A   1      20.323  16.622  10.057  1.00 20.00    -0.051 A 
ATOM      7 C7   LIG A   1      19.417  17.568   9.565  1.00 20.00    +0.017 A 
ATOM      8 C8   LIG A   1      18.417  17.155   8.675  1.00 20.00    -0.051 A 
ATOM      9 C9   LIG A   1      18.535  15.923   8.034  1.00 20.00    -0.058 A 
ATOM     10 C10  LIG A   1      19.668  19.010   9.775  1.00 20.00    +0.140 C 
ATOM     11 C11  LIG A   1      19.828  19.861   8.735  1.00 20.00    +0.047 C 
ATOM     12 C12  LIG A   1      20.144  19.523   7.308  1.00 20.00    +0.256 C 
ATOM     13 O13  LIG A   1      19.901  20.360   6.442  1.00 20.00    -0.269 OA
ATOM     14 N14  LIG A   1      21.052  18.479   7.148  1.00 20.00    -0.278 NA
ATOM     15 C15  LIG A   1      22.475  18.855   7.190  1.00 20.00    +0.029 C 
ATOM     16 C16  LIG A   1      22.924  19.793   8.338  1.00 20.00    -0.034 C 
ATOM     17 C17  LIG A   1      22.967  19.074   9.690  1.00 20.00    -0.034 C 
ATOM     18 C18  LIG A   1      22.994  19.979  10.938  1.00 20.00    +0.085 C 
ATOM     19 C19  LIG A   1      23.253  19.108  12.157  1.00 20.00    +0.311 C 
ATOM     20 O20  LIG A   1      22.600  18.144  12.531  1.00 20.00    -0.252 OA
ATOM     21 O21  LIG A   1      24.349  19.494  12.846  1.00 20.00    -0.481 OA
ATOM     22 C22  LIG A   1      21.836  20.936  11.215  1.00 20.00    +0.009 A 
ATOM     23 C23  LIG A   1      22.173  22.284  11.445  1.00 20.00    -0.052 A 
ATOM     24 C24  LIG A   1      21.213  23.243  11.802  1.00 20.00    -0.038 A 
ATOM     25 C25  LIG A   1      19.877  22.895  11.995  1.00 20.00    +0.038 A 
ATOM     26 N26  LIG A   1      18.864  23.802  12.285  1.00 20.00    -0.385 NA
ATOM     27 C27  LIG A   1      19.116  25.171  12.720  1.00 20.00    +0.016 C 
ATOM     28 C28  LIG A   1      19.509  25.230  14.197  1.00 20.00    -0.023 C 
ATOM     29 C29  LIG A   1      19.847  26.667  14.606  1.00 20.00    -0.003 C 
ATOM     30 N30  LIG A   1      20.092  26.731  16.049  1.00 20.00    -0.317 NA
ATOM     31 C31  LIG A   1      20.585  28.048  16.462  1.00 20.00    -0.005 C 
ATOM     32 C32  LIG A   1      19.858  28.518  17.733  1.00 20.00    -0.039 C 
ATOM     33 C33  LIG A   1      18.347  28.749  17.560  1.00 20.00    -0.040 C 
ATOM     34 C34  LIG A   1      17.963  29.813  16.528  1.00 20.00    -0.008 C 
ATOM     35 N35  LIG A   1      18.390  31.155  16.912  1.00 20.00    -0.330 NA
ATOM     36 C36  LIG A   1      19.528  21.565  11.742  1.00 20.00    +0.004 A 
ATOM     37 C37  LIG A   1      20.477  20.604  11.348  1.00 20.00    +0.133 A 
ATOM     38 O38  LIG A   1      19.962  19.347  11.102  1.00 20.00    -0.456 OA
ATOM     39 C39  LIG A   1      20.611  17.459   6.296  1.00 20.00    +0.246 C 
ATOM     40 O40  LIG A   1      19.533  17.525   5.692  1.00 20.00    -0.273 OA
ATOM     41 C41  LIG A   1      21.519  16.180   6.131  1.00 20.00    +0.088 C 
ATOM     42 N42  LIG A   1      22.409  16.428   4.972  1.00 20.00    -0.320 NA
ATOM     43 N43  LIG A   1      21.358  19.290  10.450  1.00 20.00    -0.330 NA
ATOM     44 C44  LIG A   1      21.310  20.701  10.071  1.00 20.00    -0.007 C 
ATOM     45 C45  LIG A   1      19.998  21.355  10.506  1.00 20.00    -0.029 C 
ATOM     46 C46  LIG A   1      19.897  21.601  12.013  1.00 20.00    -0.007 C 
ATOM     47 N47  LIG A   1      20.750  22.710  12.435  1.00 20.00    -0.330 NA
ATOM     48 H48  LIG A   1      21.587  14.145   4.069  1.00 20.00    +0.023 H 
ATOM     49 H49  LIG A   1      20.725  12.912   4.971  1.00 20.00    +0.023 H 
ATOM     50 H50  LIG A   1      22.299  13.480   5.552  1.00 20.00    +0.023 H 
ATOM     51 H51  LIG A   1      19.753  15.155   5.335  1.00 20.00    +0.032 H 
ATOM     52 H52  LIG A   1      20.969  13.574   7.647  1.00 20.00    +0.032 H 
ATOM     53 H53  LIG A   1      19.347  13.472   6.988  1.00 20.00    +0.032 H 
ATOM     54 H54  LIG A   1      21.303  14.765   9.648  1.00 20.00    +0.063 H 
ATOM     55 H55  LIG A   1      21.023  16.873  10.849  1.00 20.00    +0.063 H 
ATOM     56 H56  LIG A   1      17.650  17.850   8.334  1.00 20.00    +0.063 H 
ATOM     57 H57  LIG A   1      17.861  15.690   7.210  1.00 20.00    +0.063 H 
ATOM     58 H58  LIG A   1      19.940  20.929   8.896  1.00 20.00    +0.072 H 
ATOM     59 H59  LIG A   1      22.687  19.359   6.238  1.00 20.00    +0.050 H 
ATOM     60 H60  LIG A   1      23.100  17.958   7.219  1.00 20.00    +0.050 H 
ATOM     61 H61  LIG A   1      22.308  20.697   8.375  1.00 20.00    +0.029 H 
ATOM     62 H62  LIG A   1      23.941  20.140   8.109  1.00 20.00    +0.029 H 
ATOM     63 H63  LIG A   1      22.154  18.367   9.766  1.00 20.00    +0.028 H 
ATOM     64 H64  LIG A   1      23.870  18.445   9.697  1.00 20.00    +0.028 H 
ATOM     65 H65  LIG A   1      23.900  20.589  10.805  1.00 20.00    +0.047 H 
ATOM     66 H66  LIG A   1      24.377  18.882  13.612  1.00 20.00    +0.296 HD
ATOM     67 H67  LIG A   1      23.208  22.616  11.354  1.00 20.00    +0.063 H 
ATOM     68 H68  LIG A   1      21.546  24.267  11.938  1.00 20.00    +0.064 H 
ATOM     69 H69  LIG A   1      18.051  23.375  12.723  1.00 20.00    +0.160 HD
ATOM     70 H70  LIG A   1      18.187  25.736  12.579  1.00 20.00    +0.049 H 
ATOM     71 H71  LIG A   1      19.864  25.658  12.082  1.00 20.00    +0.049 H 
ATOM     72 H72  LIG A   1      20.375  24.581  14.389  1.00 20.00    +0.030 H 
ATOM     73 H73  LIG A   1      18.684  24.843  14.806  1.00 20.00    +0.030 H 
ATOM     74 H74  LIG A   1      20.733  27.000  14.049  1.00 20.00    +0.043 H 
ATOM     75 H75  LIG A   1      19.009  27.335  14.351  1.00 20.00    +0.043 H 
ATOM     76 H76  LIG A   1      20.776  26.008  16.313  1.00 20.00    +0.122 HD
ATOM     77 H77  LIG A   1      20.464  28.795  15.672  1.00 20.00    +0.043 H 
ATOM     78 H78  LIG A   1      21.663  27.975  16.664  1.00 20.00    +0.043 H 
ATOM     79 H79  LIG A   1      20.339  29.435  18.100  1.00 20.00    +0.028 H 
ATOM     80 H80  LIG A   1      20.003  27.773  18.526  1.00 20.00    +0.028 H 
ATOM     81 H81  LIG A   1      17.922  29.019  18.538  1.00 20.00    +0.028 H 
ATOM     82 H82  LIG A   1      17.866  27.803  17.273  1.00 20.00    +0.028 H 
ATOM     83 H83  LIG A   1      16.872  29.826  16.413  1.00 20.00    +0.043 H 
ATOM     84 H84  LIG A   1      18.374  29.575  15.542  1.00 20.00    +0.043 H 
ATOM     85 H85  LIG A   1      19.393  31.183  17.080  1.00 20.00    +0.118 HD
ATOM     86 H86  LIG A   1      17.939  31.415  17.791  1.00 20.00    +0.118 HD
ATOM     87 H87  LIG A   1      18.487  21.262  11.825  1.00 20.00    +0.068 H 
ATOM     88 H88  LIG A   1      22.137  16.042   7.023  1.00 20.00    +0.057 H 
ATOM     89 H89  LIG A   1      22.855  17.335   5.035  1.00 20.00    +0.119 HD
ATOM     90 H90  LIG A   1      23.153  15.731   4.956  1.00 20.00    +0.119 HD
ATOM     91 H91  LIG A   1      20.636  18.776   9.948  1.00 20.00    +0.118 HD
ATOM     92 H92  LIG A   1      22.248  18.898  10.149  1.00 20.00    +0.118 HD
ATOM     93 H93  LIG A   1      22.169  21.223  10.502  1.00 20.00    +0.043 H 
ATOM     94 H94  LIG A   1      21.402  20.770   8.981  1.00 20.00    +0.043 H 
ATOM     95 H95  LIG A   1      19.874  22.306   9.970  1.00 20.00    +0.029 H 
ATOM     96 H96  LIG A   1      19.156  20.724  10.194  1.00 20.00    +0.029 H 
ATOM     97 H97  LIG A   1      18.860  21.846  12.270  1.00 20.00    +0.043 H 
ATOM     98 H98  LIG A   1      20.167  20.698  12.573  1.00 20.00    +0.043 H 
ATOM     99 H99  LIG A   1      20.660  22.833  13.443  1.00 20.00    +0.118 HD
ATOM    100 H100 LIG A   1      20.417  23.575  12.012  1.00 20.00    +0.118 HD
ENDROOT
TORSDOF 0
                                                                                                       
ENDMDL
MODEL 7
REMARK VINA RESULT:    -9.519      2.388      3.947
REMARK INTER + INTRA:          -9.519
REMARK INTER:                  -9.519
REMARK INTRA:                   0.000
REMARK UNBOUND:                 0.000
ROOT
ATOM      1 C1   LIG A   1      21.757  13.704   4.905  1.00 20.00    -0.060 C 
ATOM      2 C2   LIG A   1      21.568  14.482   6.220  1.00 20.00    -0.016 C 
ATOM      3 C3   LIG A   1      22.979  14.563   6.901  1.00 20.00    -0.023 C 
ATOM      4 C4   LIG A   1      23.041  15.516   8.063  1.00 20.00    -0.048 A 
ATOM      5 C5   LIG A   1      23.665  16.759   7.904  1.00 20.00    -0.058 A 
ATOM      6 C6   LIG A   1      23.296  17.817   8.722  1.00 20.00    -0.051 A 
ATOM      7 C7   LIG A   1      22.255  17.640   9.640  1.00 20.00    +0.017 A 
ATOM      8 C8   LIG A   1      21.879  16.339  10.000  1.00 20.00    -0.051 A 
ATOM      9 C9   LIG A   1      22.288  15.264   9.212  1.00 20.00    -0.058 A 
ATOM     10 C10  LIG A   1      21.403  18.787  10.023  1.00 20.00    +0.140 C 
ATOM     11 C11  LIG A   1      20.071  18.789   9.789  1.00 20.00    +0.047 C 
ATOM     12 C12  LIG A   1      19.299  17.911   8.848  1.00 20.00    +0.256 C 
ATOM     13 O13  LIG A   1      18.087  17.795   9.019  1.00 20.00    -0.269 OA
ATOM     14 N14  LIG A   1      19.943  17.649   7.642  1.00 20.00    -0.278 NA
ATOM     15 C15  LIG A   1      19.752  18.653   6.581  1.00 20.00    +0.029 C 
ATOM     16 C16  LIG A   1      19.929  20.140   6.977  1.00 20.00    -0.034 C 
ATOM     17 C17  LIG A   1      21.397  20.508   7.206  1.00 20.00    -0.034 C 
ATOM     18 C18  LIG A   1      21.655  21.812   7.988  1.00 20.00    +0.085 C 
ATOM     19 C19  LIG A   1      23.143  22.121   7.928  1.00 20.00    +0.311 C 
ATOM     20 O20  LIG A   1      24.065  21.401   8.285  1.00 20.00    -0.252 OA
ATOM     21 O21  LIG A   1      23.398  23.338   7.399  1.00 20.00    -0.481 OA
ATOM     22 C22  LIG A   1      21.148  21.958   9.422  1.00 20.00    +0.009 A 
ATOM     23 C23  LIG A   1      20.379  23.103   9.705  1.00 20.00    -0.052 A 
ATOM     24 C24  LIG A   1      19.933  23.401  11.002  1.00 20.00    -0.038 A 
ATOM     25 C25  LIG A   1      20.274  22.597  12.088  1.00 20.00    +0.038 A 
ATOM     26 N26  LIG A   1      19.815  22.796  13.385  1.00 20.00    -0.385 NA
ATOM     27 C27  LIG A   1      19.175  24.029  13.827  1.00 20.00    +0.016 C 
ATOM     28 C28  LIG A   1      20.199  25.135  14.085  1.00 20.00    -0.023 C 
ATOM     29 C29  LIG A   1      19.495  26.441  14.469  1.00 20.00    -0.003 C 
ATOM     30 N30  LIG A   1      20.487  27.452  14.840  1.00 20.00    -0.317 NA
ATOM     31 C31  LIG A   1      19.875  28.768  15.051  1.00 20.00    -0.005 C 
ATOM     32 C32  LIG A   1      20.431  29.420  16.328  1.00 20.00    -0.039 C 
ATOM     33 C33  LIG A   1      20.100  28.668  17.628  1.00 20.00    -0.040 C 
ATOM     34 C34  LIG A   1      18.607  28.522  17.936  1.00 20.00    -0.008 C 
ATOM     35 N35  LIG A   1      17.955  29.800  18.200  1.00 20.00    -0.330 NA
ATOM     36 C36  LIG A   1      21.014  21.444  11.813  1.00 20.00    +0.004 A 
ATOM     37 C37  LIG A   1      21.435  21.116  10.511  1.00 20.00    +0.133 A 
ATOM     38 O38  LIG A   1      22.123  19.925  10.405  1.00 20.00    -0.456 OA
ATOM     39 C39  LIG A   1      20.036  16.288   7.323  1.00 20.00    +0.246 C 
ATOM     40 O40  LIG A   1      19.526  15.410   8.030  1.00 20.00    -0.273 OA
ATOM     41 C41  LIG A   1      20.841  15.877   6.030  1.00 20.00    +0.088 C 
ATOM     42 N42  LIG A   1      19.868  15.820   4.914  1.00 20.00    -0.320 NA
ATOM     43 N43  LIG A   1      21.740  20.241   8.946  1.00 20.00    -0.330 NA
ATOM     44 C44  LIG A   1      20.481  20.867   9.343  1.00 20.00    -0.007 C 
ATOM     45 C45  LIG A   1      20.293  20.838  10.861  1.00 20.00    -0.029 C 
ATOM     46 C46  LIG A   1      21.194  21.817  11.617  1.00 20.00    -0.007 C 
ATOM     47 N47  LIG A   1      20.744  23.199  11.450  1.00 20.00    -0.330 NA
ATOM     48 H48  LIG A   1      20.797  13.448   4.450  1.00 20.00    +0.023 H 
ATOM     49 H49  LIG A   1      22.277  12.760   5.092  1.00 20.00    +0.023 H 
ATOM     50 H50  LIG A   1      22.342  14.278   4.180  1.00 20.00    +0.023 H 
ATOM     51 H51  LIG A   1      20.937  13.851   6.860  1.00 20.00    +0.032 H 
ATOM     52 H52  LIG A   1      23.730  14.863   6.154  1.00 20.00    +0.032 H 
ATOM     53 H53  LIG A   1      23.282  13.563   7.243  1.00 20.00    +0.032 H 
ATOM     54 H54  LIG A   1      24.334  16.944   7.068  1.00 20.00    +0.063 H 
ATOM     55 H55  LIG A   1      23.707  18.804   8.522  1.00 20.00    +0.063 H 
ATOM     56 H56  LIG A   1      21.126  16.167  10.768  1.00 20.00    +0.063 H 
ATOM     57 H57  LIG A   1      21.843  14.285   9.384  1.00 20.00    +0.063 H 
ATOM     58 H58  LIG A   1      19.441  19.602  10.136  1.00 20.00    +0.072 H 
ATOM     59 H59  LIG A   1      18.727  18.519   6.213  1.00 20.00    +0.050 H 
ATOM     60 H60  LIG A   1      20.420  18.443   5.741  1.00 20.00    +0.050 H 
ATOM     61 H61  LIG A   1      19.304  20.397   7.838  1.00 20.00    +0.029 H 
ATOM     62 H62  LIG A   1      19.554  20.754   6.148  1.00 20.00    +0.029 H 
ATOM     63 H63  LIG A   1      21.922  19.688   7.675  1.00 20.00    +0.028 H 
ATOM     64 H64  LIG A   1      21.871  20.597   6.217  1.00 20.00    +0.028 H 
ATOM     65 H65  LIG A   1      21.161  22.587   7.384  1.00 20.00    +0.047 H 
ATOM     66 H66  LIG A   1      24.373  23.422   7.454  1.00 20.00    +0.296 HD
ATOM     67 H67  LIG A   1      20.113  23.798   8.908  1.00 20.00    +0.063 H 
ATOM     68 H68  LIG A   1      19.323  24.288  11.136  1.00 20.00    +0.064 H 
ATOM     69 H69  LIG A   1      20.402  22.361  14.094  1.00 20.00    +0.160 HD
ATOM     70 H70  LIG A   1      18.650  23.808  14.765  1.00 20.00    +0.049 H 
ATOM     71 H71  LIG A   1      18.402  24.350  13.119  1.00 20.00    +0.049 H 
ATOM     72 H72  LIG A   1      20.817  25.301  13.191  1.00 20.00    +0.030 H 
ATOM     73 H73  LIG A   1      20.880  24.819  14.884  1.00 20.00    +0.030 H 
ATOM     74 H74  LIG A   1      18.891  26.786  13.619  1.00 20.00    +0.043 H 
ATOM     75 H75  LIG A   1      18.820  26.265  15.321  1.00 20.00    +0.043 H 
ATOM     76 H76  LIG A   1      21.203  27.519  14.102  1.00 20.00    +0.122 HD
ATOM     77 H77  LIG A   1      18.785  28.705  15.114  1.00 20.00    +0.043 H 
ATOM     78 H78  LIG A   1      20.103  29.406  14.185  1.00 20.00    +0.043 H 
ATOM     79 H79  LIG A   1      20.065  30.454  16.387  1.00 20.00    +0.028 H 
ATOM     80 H80  LIG A   1      21.522  29.499  16.244  1.00 20.00    +0.028 H 
ATOM     81 H81  LIG A   1      20.595  29.184  18.464  1.00 20.00    +0.028 H 
ATOM     82 H82  LIG A   1      20.543  27.663  17.589  1.00 20.00    +0.028 H 
ATOM     83 H83  LIG A   1      18.483  27.890  18.823  1.00 20.00    +0.043 H 
ATOM     84 H84  LIG A   1      18.082  28.014  17.120  1.00 20.00    +0.043 H 
ATOM     85 H85  LIG A   1      18.085  30.442  17.422  1.00 20.00    +0.118 HD
ATOM     86 H86  LIG A   1      18.386  30.238  19.015  1.00 20.00    +0.118 HD
ATOM     87 H87  LIG A   1      21.253  20.757  12.623  1.00 20.00    +0.068 H 
ATOM     88 H88  LIG A   1      21.592  16.638   5.800  1.00 20.00    +0.057 H 
ATOM     89 H89  LIG A   1      19.291  16.652   4.883  1.00 20.00    +0.119 HD
ATOM     90 H90  LIG A   1      20.366  15.770   4.027  1.00 20.00    +0.119 HD
ATOM     91 H91  LIG A   1      21.720  19.251   9.182  1.00 20.00    +0.118 HD
ATOM     92 H92  LIG A   1      21.827  20.290   7.933  1.00 20.00    +0.118 HD
ATOM     93 H93  LIG A   1      20.449  21.893   8.965  1.00 20.00    +0.043 H 
ATOM     94 H94  LIG A   1      19.657  20.322   8.869  1.00 20.00    +0.043 H 
ATOM     95 H95  LIG A   1      19.242  21.047  11.098  1.00 20.00    +0.029 H 
ATOM     96 H96  LIG A   1      20.486  19.823  11.231  1.00 20.00    +0.029 H 
ATOM     97 H97  LIG A   1      21.173  21.575  12.686  1.00 20.00    +0.043 H 
ATOM     98 H98  LIG A   1      22.232  21.728  11.281  1.00 20.00    +0.043 H 
ATOM     99 H99  LIG A   1      21.373  23.816  11.959  1.00 20.00    +0.118 HD
ATOM    100 H100 LIG A   1      19.826  23.311  11.878  1.00 20.00    +0.118 HD
ENDROOT
TORSDOF 0
                                                                                                       
ENDMDL
MODEL 8
REMARK VINA RESULT:    -9.441      4.311     11.315
REMARK INTER + INTRA:          -9.441
REMARK INTER:                  -9.441
REMARK INTRA:                   0.000
REMARK UNBOUND:                 0.000
ROOT
ATOM      1 C1   LIG A   1      23.789  25.203  13.968  1.00 20.00    -0.060 C 
ATOM      2 C2   LIG A   1      23.589  24.413  12.661  1.00 20.00    -0.016 C 
ATOM      3 C3   LIG A   1      24.813  23.441  12.532  1.00 20.00    -0.023 C 
ATOM      4 C4   LIG A   1      24.654  22.403  11.455  1.00 20.00    -0.048 A 
ATOM      5 C5   LIG A   1      24.355  21.082  11.809  1.00 20.00    -0.058 A 
ATOM      6 C6   LIG A   1      23.706  20.261  10.897  1.00 20.00    -0.051 A 
ATOM      7 C7   LIG A   1      23.299  20.793   9.669  1.00 20.00    +0.017 A 
ATOM      8 C8   LIG A   1      23.879  21.987   9.218  1.00 20.00    -0.051 A 
ATOM      9 C9   LIG A   1      24.577  22.792  10.116  1.00 20.00    -0.058 A 
ATOM     10 C10  LIG A   1      22.103  20.252   8.989  1.00 20.00    +0.140 C 
ATOM     11 C11  LIG A   1      21.024  21.026   8.728  1.00 20.00    +0.047 C 
ATOM     12 C12  LIG A   1      20.668  22.347   9.342  1.00 20.00    +0.256 C 
ATOM     13 O13  LIG A   1      19.871  23.072   8.749  1.00 20.00    -0.269 OA
ATOM     14 N14  LIG A   1      20.945  22.447  10.703  1.00 20.00    -0.278 NA
ATOM     15 C15  LIG A   1      19.899  21.944  11.609  1.00 20.00    +0.029 C 
ATOM     16 C16  LIG A   1      19.286  20.560  11.280  1.00 20.00    -0.034 C 
ATOM     17 C17  LIG A   1      20.251  19.411  11.589  1.00 20.00    -0.034 C 
ATOM     18 C18  LIG A   1      19.922  18.055  10.932  1.00 20.00    +0.085 C 
ATOM     19 C19  LIG A   1      20.849  17.001  11.518  1.00 20.00    +0.311 C 
ATOM     20 O20  LIG A   1      22.072  17.012  11.528  1.00 20.00    -0.252 OA
ATOM     21 O21  LIG A   1      20.174  15.977  12.085  1.00 20.00    -0.481 OA
ATOM     22 C22  LIG A   1      19.885  17.931   9.410  1.00 20.00    +0.009 A 
ATOM     23 C23  LIG A   1      18.722  17.365   8.852  1.00 20.00    -0.052 A 
ATOM     24 C24  LIG A   1      18.602  17.110   7.478  1.00 20.00    -0.038 A 
ATOM     25 C25  LIG A   1      19.653  17.363   6.599  1.00 20.00    +0.038 A 
ATOM     26 N26  LIG A   1      19.581  17.196   5.220  1.00 20.00    -0.385 NA
ATOM     27 C27  LIG A   1      18.512  16.456   4.559  1.00 20.00    +0.016 C 
ATOM     28 C28  LIG A   1      18.720  14.945   4.670  1.00 20.00    -0.023 C 
ATOM     29 C29  LIG A   1      17.544  14.193   4.039  1.00 20.00    -0.003 C 
ATOM     30 N30  LIG A   1      17.817  12.753   4.034  1.00 20.00    -0.317 NA
ATOM     31 C31  LIG A   1      16.652  11.977   3.598  1.00 20.00    -0.005 C 
ATOM     32 C32  LIG A   1      17.077  10.890   2.596  1.00 20.00    -0.039 C 
ATOM     33 C33  LIG A   1      17.654  11.426   1.275  1.00 20.00    -0.040 C 
ATOM     34 C34  LIG A   1      16.704  12.301   0.453  1.00 20.00    -0.008 C 
ATOM     35 N35  LIG A   1      15.546  11.566  -0.046  1.00 20.00    -0.330 NA
ATOM     36 C36  LIG A   1      20.801  17.950   7.139  1.00 20.00    +0.004 A 
ATOM     37 C37  LIG A   1      20.918  18.243   8.510  1.00 20.00    +0.133 A 
ATOM     38 O38  LIG A   1      22.100  18.857   8.873  1.00 20.00    -0.456 OA
ATOM     39 C39  LIG A   1      21.711  23.566  11.054  1.00 20.00    +0.246 C 
ATOM     40 O40  LIG A   1      22.049  24.419  10.224  1.00 20.00    -0.273 OA
ATOM     41 C41  LIG A   1      22.170  23.715  12.556  1.00 20.00    +0.088 C 
ATOM     42 N42  LIG A   1      21.133  24.514  13.249  1.00 20.00    -0.320 NA
ATOM     43 N43  LIG A   1      21.188  19.097  10.093  1.00 20.00    -0.330 NA
ATOM     44 C44  LIG A   1      19.991  19.199   9.260  1.00 20.00    -0.007 C 
ATOM     45 C45  LIG A   1      20.322  19.026   7.777  1.00 20.00    -0.029 C 
ATOM     46 C46  LIG A   1      20.660  17.587   7.380  1.00 20.00    -0.007 C 
ATOM     47 N47  LIG A   1      19.467  16.742   7.354  1.00 20.00    -0.330 NA
ATOM     48 H48  LIG A   1      23.075  26.026  14.051  1.00 20.00    +0.023 H 
ATOM     49 H49  LIG A   1      24.787  25.649  13.995  1.00 20.00    +0.023 H 
ATOM     50 H50  LIG A   1      23.679  24.559  14.846  1.00 20.00    +0.023 H 
ATOM     51 H51  LIG A   1      23.671  25.146  11.847  1.00 20.00    +0.032 H 
ATOM     52 H52  LIG A   1      24.981  22.934  13.494  1.00 20.00    +0.032 H 
ATOM     53 H53  LIG A   1      25.726  24.021  12.336  1.00 20.00    +0.032 H 
ATOM     54 H54  LIG A   1      24.502  20.730  12.826  1.00 20.00    +0.063 H 
ATOM     55 H55  LIG A   1      23.383  19.274  11.216  1.00 20.00    +0.063 H 
ATOM     56 H56  LIG A   1      23.641  22.387   8.233  1.00 20.00    +0.063 H 
ATOM     57 H57  LIG A   1      24.861  23.799   9.811  1.00 20.00    +0.063 H 
ATOM     58 H58  LIG A   1      20.179  20.640   8.166  1.00 20.00    +0.072 H 
ATOM     59 H59  LIG A   1      19.090  22.687  11.587  1.00 20.00    +0.050 H 
ATOM     60 H60  LIG A   1      20.273  21.915  12.637  1.00 20.00    +0.050 H 
ATOM     61 H61  LIG A   1      18.922  20.523  10.249  1.00 20.00    +0.029 H 
ATOM     62 H62  LIG A   1      18.396  20.429  11.910  1.00 20.00    +0.029 H 
ATOM     63 H63  LIG A   1      21.265  19.698  11.352  1.00 20.00    +0.028 H 
ATOM     64 H64  LIG A   1      20.260  19.276  12.681  1.00 20.00    +0.028 H 
ATOM     65 H65  LIG A   1      18.916  17.815  11.306  1.00 20.00    +0.047 H 
ATOM     66 H66  LIG A   1      20.880  15.364  12.383  1.00 20.00    +0.296 HD
ATOM     67 H67  LIG A   1      17.877  17.103   9.490  1.00 20.00    +0.063 H 
ATOM     68 H68  LIG A   1      17.665  16.696   7.120  1.00 20.00    +0.064 H 
ATOM     69 H69  LIG A   1      20.490  17.088   4.777  1.00 20.00    +0.160 HD
ATOM     70 H70  LIG A   1      18.525  16.737   3.499  1.00 20.00    +0.049 H 
ATOM     71 H71  LIG A   1      17.528  16.758   4.937  1.00 20.00    +0.049 H 
ATOM     72 H72  LIG A   1      18.822  14.649   5.724  1.00 20.00    +0.030 H 
ATOM     73 H73  LIG A   1      19.658  14.672   4.174  1.00 20.00    +0.030 H 
ATOM     74 H74  LIG A   1      16.631  14.410   4.611  1.00 20.00    +0.043 H 
ATOM     75 H75  LIG A   1      17.392  14.536   3.004  1.00 20.00    +0.043 H 
ATOM     76 H76  LIG A   1      18.097  12.453   4.979  1.00 20.00    +0.122 HD
ATOM     77 H77  LIG A   1      15.884  12.612   3.148  1.00 20.00    +0.043 H 
ATOM     78 H78  LIG A   1      16.193  11.504   4.478  1.00 20.00    +0.043 H 
ATOM     79 H79  LIG A   1      16.217  10.238   2.394  1.00 20.00    +0.028 H 
ATOM     80 H80  LIG A   1      17.831  10.245   3.065  1.00 20.00    +0.028 H 
ATOM     81 H81  LIG A   1      17.980  10.570   0.666  1.00 20.00    +0.028 H 
ATOM     82 H82  LIG A   1      18.562  12.008   1.486  1.00 20.00    +0.028 H 
ATOM     83 H83  LIG A   1      17.244  12.708  -0.409  1.00 20.00    +0.043 H 
ATOM     84 H84  LIG A   1      16.357  13.163   1.034  1.00 20.00    +0.043 H 
ATOM     85 H85  LIG A   1      15.038  11.126   0.717  1.00 20.00    +0.118 HD
ATOM     86 H86  LIG A   1      15.862  10.813  -0.659  1.00 20.00    +0.118 HD
ATOM     87 H87  LIG A   1      21.624  18.217   6.479  1.00 20.00    +0.068 H 
ATOM     88 H88  LIG A   1      22.227  22.730  13.029  1.00 20.00    +0.057 H 
ATOM     89 H89  LIG A   1      20.203  24.159  13.058  1.00 20.00    +0.119 HD
ATOM     90 H90  LIG A   1      21.272  24.458  14.257  1.00 20.00    +0.119 HD
ATOM     91 H91  LIG A   1      21.819  19.867   9.880  1.00 20.00    +0.118 HD
ATOM     92 H92  LIG A   1      20.921  19.210  11.069  1.00 20.00    +0.118 HD
ATOM     93 H93  LIG A   1      19.256  18.457   9.586  1.00 20.00    +0.043 H 
ATOM     94 H94  LIG A   1      19.543  20.187   9.415  1.00 20.00    +0.043 H 
ATOM     95 H95  LIG A   1      19.477  19.384   7.175  1.00 20.00    +0.029 H 
ATOM     96 H96  LIG A   1      21.170  19.672   7.516  1.00 20.00    +0.029 H 
ATOM     97 H97  LIG A   1      21.107  17.584   6.379  1.00 20.00    +0.043 H 
ATOM     98 H98  LIG A   1      21.396  17.157   8.068  1.00 20.00    +0.043 H 
ATOM     99 H99  LIG A   1      19.736  15.795   7.095  1.00 20.00    +0.118 HD
ATOM    100 H100 LIG A   1      18.837  17.069   6.622  1.00 20.00    +0.118 HD
ENDROOT
TORSDOF 0
                                                                                                       
ENDMDL
MODEL 9
REMARK VINA RESULT:    -9.419      3.057     10.670
REMARK INTER + INTRA:          -9.419
REMARK INTER:                  -9.419
REMARK INTRA:                   0.000
REMARK UNBOUND:                 0.000
ROOT
ATOM      1 C1   LIG A   1      21.325  30.507  16.486  1.00 20.00    -0.060 C 
ATOM      2 C2   LIG A   1      20.666  29.485  15.542  1.00 20.00    -0.016 C 
ATOM      3 C3   LIG A   1      20.634  30.143  14.118  1.00 20.00    -0.023 C 
ATOM      4 C4   LIG A   1      20.268  29.189  13.015  1.00 20.00    -0.048 A 
ATOM      5 C5   LIG A   1      21.266  28.711  12.158  1.00 20.00    -0.058 A 
ATOM      6 C6   LIG A   1      21.086  27.494  11.513  1.00 20.00    -0.051 A 
ATOM      7 C7   LIG A   1      19.943  26.737  11.791  1.00 20.00    +0.017 A 
ATOM      8 C8   LIG A   1      18.837  27.363  12.382  1.00 20.00    -0.051 A 
ATOM      9 C9   LIG A   1      18.997  28.609  12.986  1.00 20.00    -0.058 A 
ATOM     10 C10  LIG A   1      19.995  25.261  11.705  1.00 20.00    +0.140 C 
ATOM     11 C11  LIG A   1      19.750  24.479  12.781  1.00 20.00    +0.047 C 
ATOM     12 C12  LIG A   1      19.758  24.874  14.228  1.00 20.00    +0.256 C 
ATOM     13 O13  LIG A   1      19.173  24.152  15.034  1.00 20.00    -0.269 OA
ATOM     14 N14  LIG A   1      20.758  25.777  14.577  1.00 20.00    -0.278 NA
ATOM     15 C15  LIG A   1      22.065  25.188  14.913  1.00 20.00    +0.029 C 
ATOM     16 C16  LIG A   1      22.621  24.107  13.952  1.00 20.00    -0.034 C 
ATOM     17 C17  LIG A   1      23.114  24.705  12.631  1.00 20.00    -0.034 C 
ATOM     18 C18  LIG A   1      23.297  23.713  11.464  1.00 20.00    +0.085 C 
ATOM     19 C19  LIG A   1      23.988  24.439  10.321  1.00 20.00    +0.311 C 
ATOM     20 O20  LIG A   1      23.616  25.459   9.758  1.00 20.00    -0.252 OA
ATOM     21 O21  LIG A   1      25.141  23.840   9.949  1.00 20.00    -0.481 OA
ATOM     22 C22  LIG A   1      22.100  22.924  10.936  1.00 20.00    +0.009 A 
ATOM     23 C23  LIG A   1      22.254  21.527  10.849  1.00 20.00    -0.052 A 
ATOM     24 C24  LIG A   1      21.266  20.700  10.293  1.00 20.00    -0.038 A 
ATOM     25 C25  LIG A   1      20.096  21.231   9.753  1.00 20.00    +0.038 A 
ATOM     26 N26  LIG A   1      19.049  20.468   9.248  1.00 20.00    -0.385 NA
ATOM     27 C27  LIG A   1      19.170  19.048   8.941  1.00 20.00    +0.016 C 
ATOM     28 C28  LIG A   1      19.898  18.816   7.617  1.00 20.00    -0.023 C 
ATOM     29 C29  LIG A   1      20.082  17.317   7.359  1.00 20.00    -0.003 C 
ATOM     30 N30  LIG A   1      20.661  17.106   6.030  1.00 20.00    -0.317 NA
ATOM     31 C31  LIG A   1      21.014  15.702   5.804  1.00 20.00    -0.005 C 
ATOM     32 C32  LIG A   1      20.555  15.251   4.407  1.00 20.00    -0.039 C 
ATOM     33 C33  LIG A   1      19.031  15.266   4.198  1.00 20.00    -0.040 C 
ATOM     34 C34  LIG A   1      18.234  14.354   5.135  1.00 20.00    -0.008 C 
ATOM     35 N35  LIG A   1      18.513  12.938   4.921  1.00 20.00    -0.330 NA
ATOM     36 C36  LIG A   1      19.921  22.614   9.861  1.00 20.00    +0.004 A 
ATOM     37 C37  LIG A   1      20.890  23.448  10.448  1.00 20.00    +0.133 A 
ATOM     38 O38  LIG A   1      20.546  24.783  10.510  1.00 20.00    -0.456 OA
ATOM     39 C39  LIG A   1      20.297  26.915  15.251  1.00 20.00    +0.246 C 
ATOM     40 O40  LIG A   1      19.109  27.059  15.561  1.00 20.00    -0.273 OA
ATOM     41 C41  LIG A   1      21.337  28.050  15.596  1.00 20.00    +0.088 C 
ATOM     42 N42  LIG A   1      21.860  27.760  16.951  1.00 20.00    -0.320 NA
ATOM     43 N43  LIG A   1      21.728  24.678  11.494  1.00 20.00    -0.330 NA
ATOM     44 C44  LIG A   1      21.355  23.324  11.899  1.00 20.00    -0.007 C 
ATOM     45 C45  LIG A   1      20.100  22.844  11.167  1.00 20.00    -0.029 C 
ATOM     46 C46  LIG A   1      20.334  22.502   9.694  1.00 20.00    -0.007 C 
ATOM     47 N47  LIG A   1      21.068  21.246   9.544  1.00 20.00    -0.330 NA
ATOM     48 H48  LIG A   1      21.232  30.204  17.532  1.00 20.00    +0.023 H 
ATOM     49 H49  LIG A   1      20.836  31.480  16.396  1.00 20.00    +0.023 H 
ATOM     50 H50  LIG A   1      22.388  30.637  16.256  1.00 20.00    +0.023 H 
ATOM     51 H51  LIG A   1      19.624  29.389  15.877  1.00 20.00    +0.032 H 
ATOM     52 H52  LIG A   1      21.617  30.585  13.897  1.00 20.00    +0.032 H 
ATOM     53 H53  LIG A   1      19.922  30.982  14.116  1.00 20.00    +0.032 H 
ATOM     54 H54  LIG A   1      22.230  29.207  12.091  1.00 20.00    +0.063 H 
ATOM     55 H55  LIG A   1      21.908  27.080  10.935  1.00 20.00    +0.063 H 
ATOM     56 H56  LIG A   1      17.906  26.821  12.541  1.00 20.00    +0.063 H 
ATOM     57 H57  LIG A   1      18.190  29.004  13.602  1.00 20.00    +0.063 H 
ATOM     58 H58  LIG A   1      19.720  23.397  12.693  1.00 20.00    +0.072 H 
ATOM     59 H59  LIG A   1      21.950  24.732  15.905  1.00 20.00    +0.050 H 
ATOM     60 H60  LIG A   1      22.819  25.974  15.012  1.00 20.00    +0.050 H 
ATOM     61 H61  LIG A   1      21.892  23.307  13.792  1.00 20.00    +0.029 H 
ATOM     62 H62  LIG A   1      23.478  23.629  14.445  1.00 20.00    +0.029 H 
ATOM     63 H63  LIG A   1      22.473  25.519  12.324  1.00 20.00    +0.028 H 
ATOM     64 H64  LIG A   1      24.082  25.188  12.831  1.00 20.00    +0.028 H 
ATOM     65 H65  LIG A   1      24.027  22.985  11.846  1.00 20.00    +0.047 H 
ATOM     66 H66  LIG A   1      25.456  24.379   9.194  1.00 20.00    +0.296 HD
ATOM     67 H67  LIG A   1      23.165  21.050  11.213  1.00 20.00    +0.063 H 
ATOM     68 H68  LIG A   1      21.448  19.630  10.284  1.00 20.00    +0.064 H 
ATOM     69 H69  LIG A   1      18.451  20.979   8.602  1.00 20.00    +0.160 HD
ATOM     70 H70  LIG A   1      18.153  18.642   8.861  1.00 20.00    +0.049 H 
ATOM     71 H71  LIG A   1      19.646  18.504   9.766  1.00 20.00    +0.049 H 
ATOM     72 H72  LIG A   1      20.880  19.310   7.628  1.00 20.00    +0.030 H 
ATOM     73 H73  LIG A   1      19.324  19.276   6.803  1.00 20.00    +0.030 H 
ATOM     74 H74  LIG A   1      20.736  16.898   8.136  1.00 20.00    +0.043 H 
ATOM     75 H75  LIG A   1      19.109  16.805   7.416  1.00 20.00    +0.043 H 
ATOM     76 H76  LIG A   1      21.500  17.695   5.923  1.00 20.00    +0.122 HD
ATOM     77 H77  LIG A   1      20.581  15.045   6.563  1.00 20.00    +0.043 H 
ATOM     78 H78  LIG A   1      22.106  15.595   5.881  1.00 20.00    +0.043 H 
ATOM     79 H79  LIG A   1      20.952  14.247   4.209  1.00 20.00    +0.028 H 
ATOM     80 H80  LIG A   1      21.012  15.902   3.651  1.00 20.00    +0.028 H 
ATOM     81 H81  LIG A   1      18.821  14.988   3.154  1.00 20.00    +0.028 H 
ATOM     82 H82  LIG A   1      18.658  16.293   4.318  1.00 20.00    +0.028 H 
ATOM     83 H83  LIG A   1      17.162  14.516   4.969  1.00 20.00    +0.043 H 
ATOM     84 H84  LIG A   1      18.424  14.602   6.185  1.00 20.00    +0.043 H 
ATOM     85 H85  LIG A   1      19.508  12.746   5.016  1.00 20.00    +0.118 HD
ATOM     86 H86  LIG A   1      18.256  12.683   3.967  1.00 20.00    +0.118 HD
ATOM     87 H87  LIG A   1      18.997  23.064   9.504  1.00 20.00    +0.068 H 
ATOM     88 H88  LIG A   1      22.169  28.023  14.887  1.00 20.00    +0.057 H 
ATOM     89 H89  LIG A   1      22.151  26.793  17.037  1.00 20.00    +0.119 HD
ATOM     90 H90  LIG A   1      22.682  28.335  17.132  1.00 20.00    +0.119 HD
ATOM     91 H91  LIG A   1      21.001  25.332  11.776  1.00 20.00    +0.118 HD
ATOM     92 H92  LIG A   1      22.569  24.953  11.997  1.00 20.00    +0.118 HD
ATOM     93 H93  LIG A   1      22.195  22.646  11.720  1.00 20.00    +0.043 H 
ATOM     94 H94  LIG A   1      21.164  23.325  12.978  1.00 20.00    +0.043 H 
ATOM     95 H95  LIG A   1      19.693  21.967  11.688  1.00 20.00    +0.029 H 
ATOM     96 H96  LIG A   1      19.324  23.618  11.231  1.00 20.00    +0.029 H 
ATOM     97 H97  LIG A   1      19.366  22.397   9.190  1.00 20.00    +0.043 H 
ATOM     98 H98  LIG A   1      20.879  23.307   9.190  1.00 20.00    +0.043 H 
ATOM     99 H99  LIG A   1      21.210  21.061   8.552  1.00 20.00    +0.118 HD
ATOM    100 H100 LIG A   1      20.502  20.478   9.899  1.00 20.00    +0.118 HD
ENDROOT
TORSDOF 0
                                                                                                       
ENDMDL
