ROOT
ATOM      1 N1   LIG A   1     -12.000   0.447   0.410  1.00 20.00    -0.289 NA
ATOM      2 C2   LIG A   1     -10.720   0.352   0.264  1.00 20.00    +0.092 C 
ATOM      3 N3   LIG A   1      -9.942   1.382   0.693  1.00 20.00    -0.388 NA
ATOM      4 C4   LIG A   1     -10.074  -0.861  -0.369  1.00 20.00    +0.022 C 
ATOM      5 C5   LIG A   1      -9.770  -0.609  -1.843  1.00 20.00    +0.022 C 
ATOM      6 N6   LIG A   1      -8.683   0.351  -2.037  1.00 20.00    -0.384 NA
ATOM      7 C7   LIG A   1      -7.356   0.044  -1.745  1.00 20.00    +0.038 A 
ATOM      8 C8   LIG A   1      -6.851  -1.262  -1.707  1.00 20.00    -0.038 A 
ATOM      9 C9   LIG A   1      -5.493  -1.510  -1.472  1.00 20.00    -0.045 A 
ATOM     10 C10  LIG A   1      -4.612  -0.441  -1.301  1.00 20.00    +0.065 A 
ATOM     11 C11  LIG A   1      -3.178  -0.675  -1.052  1.00 20.00    +0.200 C 
ATOM     12 O12  LIG A   1      -2.741  -1.816  -0.960  1.00 20.00    -0.288 OA
ATOM     13 C13  LIG A   1      -2.319   0.537  -0.923  1.00 20.00    +0.065 C 
ATOM     14 C14  LIG A   1      -0.869   0.456  -0.670  1.00 20.00    -0.011 A 
ATOM     15 C15  LIG A   1       0.043   1.191  -1.435  1.00 20.00    -0.052 A 
ATOM     16 C16  LIG A   1       1.418   1.114  -1.176  1.00 20.00    -0.038 A 
ATOM     17 C17  LIG A   1       1.929   0.281  -0.171  1.00 20.00    +0.034 A 
ATOM     18 N18  LIG A   1       3.306   0.306   0.075  1.00 20.00    -0.385 NA
ATOM     19 C19  LIG A   1       3.915  -0.751   0.876  1.00 20.00    +0.016 C 
ATOM     20 C20  LIG A   1       5.434  -0.572   0.935  1.00 20.00    -0.023 C 
ATOM     21 C21  LIG A   1       5.837   0.669   1.738  1.00 20.00    -0.003 C 
ATOM     22 N22  LIG A   1       7.287   0.798   1.924  1.00 20.00    -0.317 NA
ATOM     23 C23  LIG A   1       7.978   1.194   0.698  1.00 20.00    -0.005 C 
ATOM     24 C24  LIG A   1       9.450   1.522   0.970  1.00 20.00    -0.039 C 
ATOM     25 C25  LIG A   1      10.293   0.452   1.679  1.00 20.00    -0.040 C 
ATOM     26 C26  LIG A   1      10.269  -0.935   1.037  1.00 20.00    -0.008 C 
ATOM     27 N27  LIG A   1       9.105  -1.714   1.455  1.00 20.00    -0.330 NA
ATOM     28 C28  LIG A   1       1.009  -0.423   0.610  1.00 20.00    -0.038 A 
ATOM     29 C29  LIG A   1      -0.368  -0.351   0.356  1.00 20.00    -0.052 A 
ATOM     30 C30  LIG A   1      -2.932   1.729  -1.015  1.00 20.00    +0.103 C 
ATOM     31 O31  LIG A   1      -4.269   1.955  -1.235  1.00 20.00    -0.463 OA
ATOM     32 C32  LIG A   1      -5.084   0.862  -1.376  1.00 20.00    +0.139 A 
ATOM     33 C33  LIG A   1      -6.441   1.101  -1.609  1.00 20.00    +0.005 A 
ATOM     34 N34  LIG A   1       3.165  -0.730  -0.316  1.00 20.00    -0.328 NA
ATOM     35 C35  LIG A   1       1.796  -0.320  -0.626  1.00 20.00    +0.016 C 
ATOM     36 C36  LIG A   1       1.107   0.404   0.541  1.00 20.00    +0.059 C 
ATOM     37 O37  LIG A   1      -0.169   0.929   0.170  1.00 20.00    -0.378 OA
ATOM     38 C38  LIG A   1      -1.202  -0.054   0.161  1.00 20.00    +0.070 C 
ATOM     39 C39  LIG A   1      -2.521   0.607  -0.225  1.00 20.00    +0.067 C 
ATOM     40 O40  LIG A   1      -3.592  -0.328  -0.174  1.00 20.00    -0.394 OA
ATOM     41 H41  LIG A   1     -12.478  -0.385   0.047  1.00 20.00    +0.189 HD
ATOM     42 H42  LIG A   1     -10.441   2.000   1.326  1.00 20.00    +0.157 HD
ATOM     43 H43  LIG A   1      -9.006   1.148   1.005  1.00 20.00    +0.157 HD
ATOM     44 H44  LIG A   1      -9.170  -1.116   0.195  1.00 20.00    +0.037 H 
ATOM     45 H45  LIG A   1     -10.763  -1.709  -0.281  1.00 20.00    +0.037 H 
ATOM     46 H46  LIG A   1     -10.661  -0.201  -2.335  1.00 20.00    +0.049 H 
ATOM     47 H47  LIG A   1      -9.552  -1.552  -2.357  1.00 20.00    +0.049 H 
ATOM     48 H48  LIG A   1      -8.950   1.285  -1.721  1.00 20.00    +0.160 HD
ATOM     49 H49  LIG A   1      -7.499  -2.118  -1.865  1.00 20.00    +0.064 H 
ATOM     50 H50  LIG A   1      -5.128  -2.534  -1.437  1.00 20.00    +0.063 H 
ATOM     51 H51  LIG A   1      -0.298   1.833  -2.244  1.00 20.00    +0.063 H 
ATOM     52 H52  LIG A   1       2.095   1.717  -1.777  1.00 20.00    +0.064 H 
ATOM     53 H53  LIG A   1       3.825   0.507  -0.777  1.00 20.00    +0.160 HD
ATOM     54 H54  LIG A   1       3.514  -0.747   1.896  1.00 20.00    +0.049 H 
ATOM     55 H55  LIG A   1       3.697  -1.727   0.425  1.00 20.00    +0.049 H 
ATOM     56 H56  LIG A   1       5.835  -0.518  -0.084  1.00 20.00    +0.030 H 
ATOM     57 H57  LIG A   1       5.867  -1.464   1.405  1.00 20.00    +0.030 H 
ATOM     58 H58  LIG A   1       5.390   0.601   2.738  1.00 20.00    +0.043 H 
ATOM     59 H59  LIG A   1       5.432   1.582   1.286  1.00 20.00    +0.043 H 
ATOM     60 H60  LIG A   1       7.669  -0.114   2.193  1.00 20.00    +0.122 HD
ATOM     61 H61  LIG A   1       7.915   0.407  -0.061  1.00 20.00    +0.043 H 
ATOM     62 H62  LIG A   1       7.508   2.090   0.274  1.00 20.00    +0.043 H 
ATOM     63 H63  LIG A   1       9.925   1.756   0.008  1.00 20.00    +0.028 H 
ATOM     64 H64  LIG A   1       9.504   2.443   1.565  1.00 20.00    +0.028 H 
ATOM     65 H65  LIG A   1      10.006   0.388   2.736  1.00 20.00    +0.028 H 
ATOM     66 H66  LIG A   1      11.332   0.807   1.679  1.00 20.00    +0.028 H 
ATOM     67 H67  LIG A   1      10.287  -0.852  -0.055  1.00 20.00    +0.043 H 
ATOM     68 H68  LIG A   1      11.169  -1.484   1.335  1.00 20.00    +0.043 H 
ATOM     69 H69  LIG A   1       9.185  -1.912   2.454  1.00 20.00    +0.118 HD
ATOM     70 H70  LIG A   1       9.136  -2.624   0.994  1.00 20.00    +0.118 HD
ATOM     71 H71  LIG A   1       1.336  -1.051   1.433  1.00 20.00    +0.064 H 
ATOM     72 H72  LIG A   1      -1.044  -0.936   0.977  1.00 20.00    +0.063 H 
ATOM     73 H73  LIG A   1      -2.422   2.680  -0.914  1.00 20.00    +0.105 H 
ATOM     74 H74  LIG A   1      -6.786   2.129  -1.687  1.00 20.00    +0.068 H 
ATOM     75 H75  LIG A   1       3.727   0.093  -0.098  1.00 20.00    +0.118 HD
ATOM     76 H76  LIG A   1       3.173  -1.311   0.521  1.00 20.00    +0.118 HD
ATOM     77 H77  LIG A   1       1.803   0.331  -1.507  1.00 20.00    +0.045 H 
ATOM     78 H78  LIG A   1       1.222  -1.207  -0.911  1.00 20.00    +0.045 H 
ATOM     79 H79  LIG A   1       1.718   1.261   0.843  1.00 20.00    +0.058 H 
ATOM     80 H80  LIG A   1       1.011  -0.249   1.418  1.00 20.00    +0.058 H 
ATOM     81 H81  LIG A   1      -0.974  -0.853  -0.553  1.00 20.00    +0.059 H 
ATOM     82 H82  LIG A   1      -1.293  -0.510   1.154  1.00 20.00    +0.059 H 
ATOM     83 H83  LIG A   1      -2.459   1.009  -1.241  1.00 20.00    +0.059 H 
ATOM     84 H84  LIG A   1      -2.749   1.449   0.438  1.00 20.00    +0.059 H 
ATOM     85 H85  LIG A   1      -3.762  -0.523   0.764  1.00 20.00    +0.210 HD
ENDROOT
TORSDOF 0
