MODEL 1
REMARK VINA RESULT:   -11.717      0.000      0.000
REMARK INTER + INTRA:         -11.717
REMARK INTER:                 -11.717
REMARK INTRA:                   0.000
REMARK UNBOUND:                 0.000
ROOT
ATOM      1 C1   LIG A   1      22.301  23.401  13.722  1.00 20.00    -0.056 C 
ATOM      2 C2   LIG A   1      21.147  24.275  13.260  1.00 20.00    -0.002 C 
ATOM      3 S3   LIG A   1      19.932  23.322  12.304  1.00 20.00    -0.087 SA
ATOM      4 C4   LIG A   1      20.808  23.141  10.782  1.00 20.00    +0.205 C 
ATOM      5 O5   LIG A   1      21.757  23.865  10.488  1.00 20.00    -0.285 OA
ATOM      6 C6   LIG A   1      20.236  22.071   9.833  1.00 20.00    +0.074 C 
ATOM      7 N7   LIG A   1      19.579  22.740   8.687  1.00 20.00    -0.321 NA
ATOM      8 C8   LIG A   1      21.380  21.166   9.346  1.00 20.00    -0.028 C 
ATOM      9 C9   LIG A   1      20.936  19.790   8.838  1.00 20.00    -0.034 C 
ATOM     10 C10  LIG A   1      19.947  19.822   7.672  1.00 20.00    +0.018 C 
ATOM     11 N11  LIG A   1      19.794  18.490   7.096  1.00 20.00    -0.357 NA
ATOM     12 C12  LIG A   1      19.087  17.518   7.716  1.00 20.00    +0.185 C 
ATOM     13 N13  LIG A   1      18.384  17.668   8.777  1.00 20.00    -0.270 NA
ATOM     14 N14  LIG A   1      19.200  16.344   7.062  1.00 20.00    -0.370 NA
ATOM     15 N15  LIG A   1      21.893  32.610  17.073  1.00 20.00    -0.330 NA
ATOM     16 C16  LIG A   1      21.145  31.981  15.990  1.00 20.00    -0.008 C 
ATOM     17 C17  LIG A   1      21.000  30.477  16.224  1.00 20.00    -0.040 C 
ATOM     18 C18  LIG A   1      20.215  29.817  15.084  1.00 20.00    -0.039 C 
ATOM     19 C19  LIG A   1      19.984  28.319  15.305  1.00 20.00    -0.005 C 
ATOM     20 N20  LIG A   1      21.253  27.590  15.326  1.00 20.00    -0.317 NA
ATOM     21 C21  LIG A   1      21.042  26.167  15.601  1.00 20.00    -0.003 C 
ATOM     22 C22  LIG A   1      22.388  25.439  15.609  1.00 20.00    -0.023 C 
ATOM     23 C23  LIG A   1      22.259  23.981  16.053  1.00 20.00    +0.016 C 
ATOM     24 N24  LIG A   1      21.506  23.165  15.111  1.00 20.00    -0.385 NA
ATOM     25 C25  LIG A   1      22.012  22.722  13.896  1.00 20.00    +0.034 A 
ATOM     26 C26  LIG A   1      23.366  22.750  13.556  1.00 20.00    -0.038 A 
ATOM     27 C27  LIG A   1      23.830  22.205  12.348  1.00 20.00    -0.049 A 
ATOM     28 C28  LIG A   1      22.952  21.591  11.448  1.00 20.00    +0.017 A 
ATOM     29 C29  LIG A   1      23.446  21.001  10.205  1.00 20.00    +0.134 A 
ATOM     30 C30  LIG A   1      24.673  20.957   9.574  1.00 20.00    -0.015 A 
ATOM     31 C31  LIG A   1      24.498  20.193   8.393  1.00 20.00    -0.015 A 
ATOM     32 C32  LIG A   1      23.171  19.813   8.357  1.00 20.00    +0.134 A 
ATOM     33 C33  LIG A   1      22.356  19.022   7.440  1.00 20.00    +0.017 A 
ATOM     34 C34  LIG A   1      22.941  18.330   6.372  1.00 20.00    -0.049 A 
ATOM     35 C35  LIG A   1      22.162  17.562   5.494  1.00 20.00    -0.038 A 
ATOM     36 C36  LIG A   1      20.774  17.479   5.631  1.00 20.00    +0.034 A 
ATOM     37 N37  LIG A   1      19.958  16.683   4.838  1.00 20.00    -0.385 NA
ATOM     38 C38  LIG A   1      20.384  16.113   3.566  1.00 20.00    +0.016 C 
ATOM     39 C39  LIG A   1      20.955  14.707   3.756  1.00 20.00    -0.023 C 
ATOM     40 C40  LIG A   1      19.910  13.686   4.214  1.00 20.00    -0.003 C 
ATOM     41 N41  LIG A   1      18.938  13.412   3.149  1.00 20.00    -0.317 NA
ATOM     42 C42  LIG A   1      17.850  12.541   3.603  1.00 20.00    -0.005 C 
ATOM     43 C43  LIG A   1      16.796  13.261   4.454  1.00 20.00    -0.039 C 
ATOM     44 C44  LIG A   1      16.126  14.422   3.708  1.00 20.00    -0.040 C 
ATOM     45 C45  LIG A   1      15.086  15.171   4.548  1.00 20.00    -0.008 C 
ATOM     46 N46  LIG A   1      13.927  14.354   4.890  1.00 20.00    -0.330 NA
ATOM     47 C47  LIG A   1      20.198  18.151   6.717  1.00 20.00    -0.038 A 
ATOM     48 C48  LIG A   1      20.971  18.917   7.601  1.00 20.00    -0.049 A 
ATOM     49 O49  LIG A   1      22.534  20.311   9.459  1.00 20.00    -0.456 OA
ATOM     50 C50  LIG A   1      21.598  21.543  11.793  1.00 20.00    -0.049 A 
ATOM     51 C51  LIG A   1      21.142  22.089  13.001  1.00 20.00    -0.038 A 
ATOM     52 H52  LIG A   1      22.994  23.992  14.331  1.00 20.00    +0.024 H 
ATOM     53 H53  LIG A   1      21.951  22.564  14.335  1.00 20.00    +0.024 H 
ATOM     54 H54  LIG A   1      22.871  22.999  12.878  1.00 20.00    +0.024 H 
ATOM     55 H55  LIG A   1      20.630  24.679  14.138  1.00 20.00    +0.038 H 
ATOM     56 H56  LIG A   1      21.511  25.130  12.680  1.00 20.00    +0.038 H 
ATOM     57 H57  LIG A   1      19.496  21.461  10.363  1.00 20.00    +0.055 H 
ATOM     58 H58  LIG A   1      18.795  23.297   9.036  1.00 20.00    +0.119 HD
ATOM     59 H59  LIG A   1      20.235  23.410   8.281  1.00 20.00    +0.119 HD
ATOM     60 H60  LIG A   1      21.962  21.673   8.563  1.00 20.00    +0.029 H 
ATOM     61 H61  LIG A   1      22.084  20.997  10.172  1.00 20.00    +0.029 H 
ATOM     62 H62  LIG A   1      21.836  19.238   8.534  1.00 20.00    +0.029 H 
ATOM     63 H63  LIG A   1      20.503  19.227   9.675  1.00 20.00    +0.029 H 
ATOM     64 H64  LIG A   1      20.323  20.485   6.884  1.00 20.00    +0.049 H 
ATOM     65 H65  LIG A   1      18.969  20.204   7.984  1.00 20.00    +0.049 H 
ATOM     66 H66  LIG A   1      20.643  18.149   6.661  1.00 20.00    +0.163 HD
ATOM     67 H67  LIG A   1      17.969  16.776   9.045  1.00 20.00    +0.191 HD
ATOM     68 H68  LIG A   1      18.512  15.651   7.327  1.00 20.00    +0.159 HD
ATOM     69 H69  LIG A   1      19.203  16.469   6.056  1.00 20.00    +0.159 HD
ATOM     70 H70  LIG A   1      21.430  32.422  17.963  1.00 20.00    +0.118 HD
ATOM     71 H71  LIG A   1      22.814  32.174  17.143  1.00 20.00    +0.118 HD
ATOM     72 H72  LIG A   1      21.660  32.171  15.042  1.00 20.00    +0.043 H 
ATOM     73 H73  LIG A   1      20.157  32.452  15.923  1.00 20.00    +0.043 H 
ATOM     74 H74  LIG A   1      20.484  30.297  17.175  1.00 20.00    +0.028 H 
ATOM     75 H75  LIG A   1      21.996  30.025  16.305  1.00 20.00    +0.028 H 
ATOM     76 H76  LIG A   1      19.236  30.306  14.989  1.00 20.00    +0.028 H 
ATOM     77 H77  LIG A   1      20.738  29.977  14.132  1.00 20.00    +0.028 H 
ATOM     78 H78  LIG A   1      19.349  27.939  14.498  1.00 20.00    +0.043 H 
ATOM     79 H79  LIG A   1      19.447  28.177  16.250  1.00 20.00    +0.043 H 
ATOM     80 H80  LIG A   1      21.720  27.697  14.424  1.00 20.00    +0.122 HD
ATOM     81 H81  LIG A   1      20.386  25.729  14.840  1.00 20.00    +0.043 H 
ATOM     82 H82  LIG A   1      20.558  26.049  16.579  1.00 20.00    +0.043 H 
ATOM     83 H83  LIG A   1      22.852  25.501  14.618  1.00 20.00    +0.030 H 
ATOM     84 H84  LIG A   1      23.067  25.944  16.307  1.00 20.00    +0.030 H 
ATOM     85 H85  LIG A   1      23.251  23.550  16.233  1.00 20.00    +0.049 H 
ATOM     86 H86  LIG A   1      21.746  23.941  17.021  1.00 20.00    +0.049 H 
ATOM     87 H87  LIG A   1      20.504  23.335  15.107  1.00 20.00    +0.160 HD
ATOM     88 H88  LIG A   1      24.100  23.189  14.226  1.00 20.00    +0.064 H 
ATOM     89 H89  LIG A   1      24.896  22.254  12.138  1.00 20.00    +0.063 H 
ATOM     90 H90  LIG A   1      25.590  21.412   9.922  1.00 20.00    +0.066 H 
ATOM     91 H91  LIG A   1      25.253  19.951   7.660  1.00 20.00    +0.066 H 
ATOM     92 H92  LIG A   1      24.015  18.362   6.212  1.00 20.00    +0.063 H 
ATOM     93 H93  LIG A   1      22.676  17.023   4.703  1.00 20.00    +0.064 H 
ATOM     94 H94  LIG A   1      18.978  16.950   4.854  1.00 20.00    +0.160 HD
ATOM     95 H95  LIG A   1      19.516  16.076   2.897  1.00 20.00    +0.049 H 
ATOM     96 H96  LIG A   1      21.114  16.760   3.064  1.00 20.00    +0.049 H 
ATOM     97 H97  LIG A   1      21.404  14.373   2.811  1.00 20.00    +0.030 H 
ATOM     98 H98  LIG A   1      21.764  14.726   4.495  1.00 20.00    +0.030 H 
ATOM     99 H99  LIG A   1      20.421  12.753   4.481  1.00 20.00    +0.043 H 
ATOM    100 H100 LIG A   1      19.417  14.054   5.121  1.00 20.00    +0.043 H 
ATOM    101 H101 LIG A   1      19.422  12.955   2.377  1.00 20.00    +0.122 HD
ATOM    102 H102 LIG A   1      17.353  12.132   2.715  1.00 20.00    +0.043 H 
ATOM    103 H103 LIG A   1      18.250  11.678   4.151  1.00 20.00    +0.043 H 
ATOM    104 H104 LIG A   1      17.240  13.630   5.386  1.00 20.00    +0.028 H 
ATOM    105 H105 LIG A   1      16.040  12.521   4.742  1.00 20.00    +0.028 H 
ATOM    106 H106 LIG A   1      15.658  14.048   2.788  1.00 20.00    +0.028 H 
ATOM    107 H107 LIG A   1      16.887  15.148   3.398  1.00 20.00    +0.028 H 
ATOM    108 H108 LIG A   1      15.545  15.551   5.467  1.00 20.00    +0.043 H 
ATOM    109 H109 LIG A   1      14.737  16.041   3.982  1.00 20.00    +0.043 H 
ATOM    110 H110 LIG A   1      13.532  13.951   4.042  1.00 20.00    +0.118 HD
ATOM    111 H111 LIG A   1      14.211  13.572   5.476  1.00 20.00    +0.118 HD
ATOM    112 H112 LIG A   1      19.127  18.086   6.890  1.00 20.00    +0.064 H 
ATOM    113 H113 LIG A   1      20.471  19.430   8.420  1.00 20.00    +0.063 H 
ATOM    114 H114 LIG A   1      20.879  21.063  11.132  1.00 20.00    +0.063 H 
ATOM    115 H115 LIG A   1      20.085  21.999  13.240  1.00 20.00    +0.064 H 
ENDROOT
TORSDOF 0
                                                                                                                      
ENDMDL
MODEL 2
REMARK VINA RESULT:   -10.902      3.787     13.417
REMARK INTER + INTRA:         -10.902
REMARK INTER:                 -10.902
REMARK INTRA:                   0.000
REMARK UNBOUND:                 0.000
ROOT
ATOM      1 C1   LIG A   1      20.675  20.658   9.609  1.00 20.00    -0.056 C 
ATOM      2 C2   LIG A   1      21.116  19.917  10.860  1.00 20.00    -0.002 C 
ATOM      3 S3   LIG A   1      20.351  20.616  12.352  1.00 20.00    -0.087 SA
ATOM      4 C4   LIG A   1      21.298  22.096  12.521  1.00 20.00    +0.205 C 
ATOM      5 O5   LIG A   1      22.383  22.242  11.963  1.00 20.00    -0.285 OA
ATOM      6 C6   LIG A   1      20.696  23.139  13.482  1.00 20.00    +0.074 C 
ATOM      7 N7   LIG A   1      21.508  23.186  14.719  1.00 20.00    -0.321 NA
ATOM      8 C8   LIG A   1      20.686  24.514  12.792  1.00 20.00    -0.028 C 
ATOM      9 C9   LIG A   1      19.684  25.516  13.375  1.00 20.00    -0.034 C 
ATOM     10 C10  LIG A   1      19.877  25.832  14.858  1.00 20.00    +0.018 C 
ATOM     11 N11  LIG A   1      19.059  26.975  15.248  1.00 20.00    -0.357 NA
ATOM     12 C12  LIG A   1      17.720  26.877  15.407  1.00 20.00    +0.185 C 
ATOM     13 N13  LIG A   1      17.041  25.791  15.364  1.00 20.00    -0.270 NA
ATOM     14 N14  LIG A   1      17.168  28.086  15.635  1.00 20.00    -0.370 NA
ATOM     15 N15  LIG A   1      26.052  12.535   8.472  1.00 20.00    -0.330 NA
ATOM     16 C16  LIG A   1      25.788  13.314   9.678  1.00 20.00    -0.008 C 
ATOM     17 C17  LIG A   1      24.447  14.041   9.578  1.00 20.00    -0.040 C 
ATOM     18 C18  LIG A   1      24.171  14.860  10.845  1.00 20.00    -0.039 C 
ATOM     19 C19  LIG A   1      22.806  15.556  10.823  1.00 20.00    -0.005 C 
ATOM     20 N20  LIG A   1      22.737  16.542   9.744  1.00 20.00    -0.317 NA
ATOM     21 C21  LIG A   1      21.412  17.163   9.679  1.00 20.00    -0.003 C 
ATOM     22 C22  LIG A   1      21.381  18.191   8.545  1.00 20.00    -0.023 C 
ATOM     23 C23  LIG A   1      19.980  18.759   8.312  1.00 20.00    +0.016 C 
ATOM     24 N24  LIG A   1      19.500  19.560   9.429  1.00 20.00    -0.385 NA
ATOM     25 C25  LIG A   1      19.946  20.846   9.705  1.00 20.00    +0.034 A 
ATOM     26 C26  LIG A   1      20.675  21.631   8.808  1.00 20.00    -0.038 A 
ATOM     27 C27  LIG A   1      21.022  22.958   9.109  1.00 20.00    -0.049 A 
ATOM     28 C28  LIG A   1      20.628  23.552  10.313  1.00 20.00    +0.017 A 
ATOM     29 C29  LIG A   1      20.969  24.943  10.608  1.00 20.00    +0.134 A 
ATOM     30 C30  LIG A   1      21.731  25.907   9.980  1.00 20.00    -0.015 A 
ATOM     31 C31  LIG A   1      21.639  27.080  10.771  1.00 20.00    -0.015 A 
ATOM     32 C32  LIG A   1      20.829  26.773  11.846  1.00 20.00    +0.134 A 
ATOM     33 C33  LIG A   1      20.332  27.516  13.001  1.00 20.00    +0.017 A 
ATOM     34 C34  LIG A   1      20.545  28.895  13.113  1.00 20.00    -0.049 A 
ATOM     35 C35  LIG A   1      20.061  29.615  14.217  1.00 20.00    -0.038 A 
ATOM     36 C36  LIG A   1      19.374  28.982  15.256  1.00 20.00    +0.034 A 
ATOM     37 N37  LIG A   1      18.812  29.647  16.337  1.00 20.00    -0.385 NA
ATOM     38 C38  LIG A   1      19.156  31.016  16.705  1.00 20.00    +0.016 C 
ATOM     39 C39  LIG A   1      18.198  32.017  16.056  1.00 20.00    -0.023 C 
ATOM     40 C40  LIG A   1      16.763  31.910  16.581  1.00 20.00    -0.003 C 
ATOM     41 N41  LIG A   1      16.677  32.359  17.976  1.00 20.00    -0.317 NA
ATOM     42 C42  LIG A   1      15.344  32.142  18.545  1.00 20.00    -0.005 C 
ATOM     43 C43  LIG A   1      15.071  30.685  18.941  1.00 20.00    -0.039 C 
ATOM     44 C44  LIG A   1      16.066  30.157  19.981  1.00 20.00    -0.040 C 
ATOM     45 C45  LIG A   1      15.826  28.695  20.372  1.00 20.00    -0.008 C 
ATOM     46 N46  LIG A   1      14.561  28.488  21.068  1.00 20.00    -0.330 NA
ATOM     47 C47  LIG A   1      19.141  27.608  15.124  1.00 20.00    -0.038 A 
ATOM     48 C48  LIG A   1      19.618  26.883  14.023  1.00 20.00    -0.049 A 
ATOM     49 O49  LIG A   1      20.428  25.470  11.746  1.00 20.00    -0.456 OA
ATOM     50 C50  LIG A   1      19.882  22.778  11.206  1.00 20.00    -0.049 A 
ATOM     51 C51  LIG A   1      19.539  21.453  10.899  1.00 20.00    -0.038 A 
ATOM     52 H52  LIG A   1      21.116  20.189   8.723  1.00 20.00    +0.024 H 
ATOM     53 H53  LIG A   1      19.586  20.633   9.489  1.00 20.00    +0.024 H 
ATOM     54 H54  LIG A   1      20.999  21.704   9.619  1.00 20.00    +0.024 H 
ATOM     55 H55  LIG A   1      20.798  18.872  10.787  1.00 20.00    +0.038 H 
ATOM     56 H56  LIG A   1      22.208  19.916  10.949  1.00 20.00    +0.038 H 
ATOM     57 H57  LIG A   1      19.669  22.859  13.740  1.00 20.00    +0.055 H 
ATOM     58 H58  LIG A   1      21.459  22.274  15.179  1.00 20.00    +0.119 HD
ATOM     59 H59  LIG A   1      22.489  23.312  14.461  1.00 20.00    +0.119 HD
ATOM     60 H60  LIG A   1      21.692  24.956  12.804  1.00 20.00    +0.029 H 
ATOM     61 H61  LIG A   1      20.436  24.383  11.730  1.00 20.00    +0.029 H 
ATOM     62 H62  LIG A   1      19.762  26.445  12.794  1.00 20.00    +0.029 H 
ATOM     63 H63  LIG A   1      18.667  25.138  13.207  1.00 20.00    +0.029 H 
ATOM     64 H64  LIG A   1      20.925  26.092  15.050  1.00 20.00    +0.049 H 
ATOM     65 H65  LIG A   1      19.631  24.970  15.489  1.00 20.00    +0.049 H 
ATOM     66 H66  LIG A   1      19.344  27.835  14.796  1.00 20.00    +0.163 HD
ATOM     67 H67  LIG A   1      16.052  25.997  15.496  1.00 20.00    +0.191 HD
ATOM     68 H68  LIG A   1      16.225  28.052  16.000  1.00 20.00    +0.159 HD
ATOM     69 H69  LIG A   1      17.754  28.664  16.227  1.00 20.00    +0.159 HD
ATOM     70 H70  LIG A   1      25.290  11.875   8.318  1.00 20.00    +0.118 HD
ATOM     71 H71  LIG A   1      26.048  13.158   7.663  1.00 20.00    +0.118 HD
ATOM     72 H72  LIG A   1      26.601  14.034   9.824  1.00 20.00    +0.043 H 
ATOM     73 H73  LIG A   1      25.791  12.639  10.542  1.00 20.00    +0.043 H 
ATOM     74 H74  LIG A   1      23.639  13.313   9.431  1.00 20.00    +0.028 H 
ATOM     75 H75  LIG A   1      24.455  14.699   8.700  1.00 20.00    +0.028 H 
ATOM     76 H76  LIG A   1      24.205  14.197  11.719  1.00 20.00    +0.028 H 
ATOM     77 H77  LIG A   1      24.965  15.605  10.986  1.00 20.00    +0.028 H 
ATOM     78 H78  LIG A   1      22.647  16.047  11.789  1.00 20.00    +0.043 H 
ATOM     79 H79  LIG A   1      22.023  14.799  10.699  1.00 20.00    +0.043 H 
ATOM     80 H80  LIG A   1      23.443  17.263   9.898  1.00 20.00    +0.122 HD
ATOM     81 H81  LIG A   1      21.177  17.652  10.631  1.00 20.00    +0.043 H 
ATOM     82 H82  LIG A   1      20.653  16.393   9.493  1.00 20.00    +0.043 H 
ATOM     83 H83  LIG A   1      22.095  18.996   8.751  1.00 20.00    +0.030 H 
ATOM     84 H84  LIG A   1      21.708  17.710   7.614  1.00 20.00    +0.030 H 
ATOM     85 H85  LIG A   1      19.955  19.337   7.381  1.00 20.00    +0.049 H 
ATOM     86 H86  LIG A   1      19.275  17.934   8.161  1.00 20.00    +0.049 H 
ATOM     87 H87  LIG A   1      19.233  19.027  10.251  1.00 20.00    +0.160 HD
ATOM     88 H88  LIG A   1      20.985  21.234   7.846  1.00 20.00    +0.064 H 
ATOM     89 H89  LIG A   1      21.588  23.520   8.371  1.00 20.00    +0.063 H 
ATOM     90 H90  LIG A   1      22.284  25.788   9.059  1.00 20.00    +0.066 H 
ATOM     91 H91  LIG A   1      22.108  28.033  10.575  1.00 20.00    +0.066 H 
ATOM     92 H92  LIG A   1      21.077  29.440  12.338  1.00 20.00    +0.063 H 
ATOM     93 H93  LIG A   1      20.230  30.687  14.233  1.00 20.00    +0.064 H 
ATOM     94 H94  LIG A   1      18.620  29.050  17.136  1.00 20.00    +0.160 HD
ATOM     95 H95  LIG A   1      19.103  31.102  17.797  1.00 20.00    +0.049 H 
ATOM     96 H96  LIG A   1      20.194  31.250  16.442  1.00 20.00    +0.049 H 
ATOM     97 H97  LIG A   1      18.576  33.034  16.227  1.00 20.00    +0.030 H 
ATOM     98 H98  LIG A   1      18.179  31.870  14.970  1.00 20.00    +0.030 H 
ATOM     99 H99  LIG A   1      16.114  32.539  15.961  1.00 20.00    +0.043 H 
ATOM    100 H100 LIG A   1      16.414  30.877  16.470  1.00 20.00    +0.043 H 
ATOM    101 H101 LIG A   1      16.890  33.355  18.010  1.00 20.00    +0.122 HD
ATOM    102 H102 LIG A   1      15.257  32.763  19.445  1.00 20.00    +0.043 H 
ATOM    103 H103 LIG A   1      14.568  32.497  17.856  1.00 20.00    +0.043 H 
ATOM    104 H104 LIG A   1      15.084  30.037  18.057  1.00 20.00    +0.028 H 
ATOM    105 H105 LIG A   1      14.052  30.636  19.346  1.00 20.00    +0.028 H 
ATOM    106 H106 LIG A   1      16.033  30.790  20.877  1.00 20.00    +0.028 H 
ATOM    107 H107 LIG A   1      17.086  30.231  19.584  1.00 20.00    +0.028 H 
ATOM    108 H108 LIG A   1      15.860  28.056  19.484  1.00 20.00    +0.043 H 
ATOM    109 H109 LIG A   1      16.637  28.370  21.032  1.00 20.00    +0.043 H 
ATOM    110 H110 LIG A   1      14.500  29.123  21.862  1.00 20.00    +0.118 HD
ATOM    111 H111 LIG A   1      13.782  28.717  20.454  1.00 20.00    +0.118 HD
ATOM    112 H112 LIG A   1      18.578  27.077  15.887  1.00 20.00    +0.064 H 
ATOM    113 H113 LIG A   1      19.420  25.815  13.976  1.00 20.00    +0.063 H 
ATOM    114 H114 LIG A   1      19.540  23.200  12.148  1.00 20.00    +0.063 H 
ATOM    115 H115 LIG A   1      18.930  20.900  11.611  1.00 20.00    +0.064 H 
ENDROOT
TORSDOF 0
                                                                                                                      
ENDMDL
MODEL 3
REMARK VINA RESULT:   -10.829      3.024     13.169
REMARK INTER + INTRA:         -10.829
REMARK INTER:                 -10.829
REMARK INTRA:                   0.000
REMARK UNBOUND:                 0.000
ROOT
ATOM      1 C1   LIG A   1      21.624  21.558   7.604  1.00 20.00    -0.056 C 
ATOM      2 C2   LIG A   1      20.876  20.427   8.289  1.00 20.00    -0.002 C 
ATOM      3 S3   LIG A   1      19.672  21.059   9.494  1.00 20.00    -0.087 SA
ATOM      4 C4   LIG A   1      20.761  21.540  10.797  1.00 20.00    +0.205 C 
ATOM      5 O5   LIG A   1      21.912  21.115  10.874  1.00 20.00    -0.285 OA
ATOM      6 C6   LIG A   1      20.128  22.458  11.859  1.00 20.00    +0.074 C 
ATOM      7 N7   LIG A   1      19.932  21.691  13.110  1.00 20.00    -0.321 NA
ATOM      8 C8   LIG A   1      21.054  23.661  12.104  1.00 20.00    -0.028 C 
ATOM      9 C9   LIG A   1      20.365  24.888  12.713  1.00 20.00    -0.034 C 
ATOM     10 C10  LIG A   1      19.688  24.643  14.061  1.00 20.00    +0.018 C 
ATOM     11 N11  LIG A   1      19.298  25.909  14.673  1.00 20.00    -0.357 NA
ATOM     12 C12  LIG A   1      18.239  26.623  14.231  1.00 20.00    +0.185 C 
ATOM     13 N13  LIG A   1      17.400  26.240  13.341  1.00 20.00    -0.270 NA
ATOM     14 N14  LIG A   1      18.158  27.813  14.861  1.00 20.00    -0.370 NA
ATOM     15 N15  LIG A   1      23.072  12.439   4.299  1.00 20.00    -0.330 NA
ATOM     16 C16  LIG A   1      22.421  12.890   5.525  1.00 20.00    -0.008 C 
ATOM     17 C17  LIG A   1      21.824  14.287   5.346  1.00 20.00    -0.040 C 
ATOM     18 C18  LIG A   1      21.142  14.761   6.635  1.00 20.00    -0.039 C 
ATOM     19 C19  LIG A   1      20.469  16.129   6.487  1.00 20.00    -0.005 C 
ATOM     20 N20  LIG A   1      21.456  17.173   6.206  1.00 20.00    -0.317 NA
ATOM     21 C21  LIG A   1      20.810  18.471   6.001  1.00 20.00    -0.003 C 
ATOM     22 C22  LIG A   1      21.873  19.535   5.716  1.00 20.00    -0.023 C 
ATOM     23 C23  LIG A   1      21.260  20.882   5.328  1.00 20.00    +0.016 C 
ATOM     24 N24  LIG A   1      20.524  21.506   6.419  1.00 20.00    -0.385 NA
ATOM     25 C25  LIG A   1      21.130  22.125   7.504  1.00 20.00    +0.034 A 
ATOM     26 C26  LIG A   1      22.480  22.481   7.548  1.00 20.00    -0.038 A 
ATOM     27 C27  LIG A   1      23.017  23.186   8.637  1.00 20.00    -0.049 A 
ATOM     28 C28  LIG A   1      22.211  23.581   9.711  1.00 20.00    +0.017 A 
ATOM     29 C29  LIG A   1      22.771  24.339  10.828  1.00 20.00    +0.134 A 
ATOM     30 C30  LIG A   1      24.041  24.743  11.184  1.00 20.00    -0.015 A 
ATOM     31 C31  LIG A   1      23.913  25.485  12.386  1.00 20.00    -0.015 A 
ATOM     32 C32  LIG A   1      22.570  25.493  12.707  1.00 20.00    +0.134 A 
ATOM     33 C33  LIG A   1      21.778  26.075  13.787  1.00 20.00    +0.017 A 
ATOM     34 C34  LIG A   1      22.359  26.948  14.715  1.00 20.00    -0.049 A 
ATOM     35 C35  LIG A   1      21.599  27.517  15.748  1.00 20.00    -0.038 A 
ATOM     36 C36  LIG A   1      20.245  27.214  15.910  1.00 20.00    +0.034 A 
ATOM     37 N37  LIG A   1      19.426  27.795  16.868  1.00 20.00    -0.385 NA
ATOM     38 C38  LIG A   1      19.934  28.518  18.028  1.00 20.00    +0.016 C 
ATOM     39 C39  LIG A   1      20.044  30.016  17.739  1.00 20.00    -0.023 C 
ATOM     40 C40  LIG A   1      18.687  30.693  17.526  1.00 20.00    -0.003 C 
ATOM     41 N41  LIG A   1      17.921  30.743  18.777  1.00 20.00    -0.317 NA
ATOM     42 C42  LIG A   1      16.566  31.265  18.575  1.00 20.00    -0.005 C 
ATOM     43 C43  LIG A   1      15.597  30.247  17.959  1.00 20.00    -0.039 C 
ATOM     44 C44  LIG A   1      15.441  28.985  18.815  1.00 20.00    -0.040 C 
ATOM     45 C45  LIG A   1      14.496  27.944  18.205  1.00 20.00    -0.008 C 
ATOM     46 N46  LIG A   1      13.113  28.400  18.128  1.00 20.00    -0.330 NA
ATOM     47 C47  LIG A   1      19.663  26.362  14.963  1.00 20.00    -0.038 A 
ATOM     48 C48  LIG A   1      20.415  25.794  13.925  1.00 20.00    -0.049 A 
ATOM     49 O49  LIG A   1      21.880  24.790  11.760  1.00 20.00    -0.456 OA
ATOM     50 C50  LIG A   1      20.855  23.245   9.662  1.00 20.00    -0.049 A 
ATOM     51 C51  LIG A   1      20.325  22.540   8.572  1.00 20.00    -0.038 A 
ATOM     52 H52  LIG A   1      22.310  21.150   6.855  1.00 20.00    +0.024 H 
ATOM     53 H53  LIG A   1      20.938  22.240   7.090  1.00 20.00    +0.024 H 
ATOM     54 H54  LIG A   1      22.223  22.138   8.313  1.00 20.00    +0.024 H 
ATOM     55 H55  LIG A   1      20.319  19.858   7.537  1.00 20.00    +0.038 H 
ATOM     56 H56  LIG A   1      21.573  19.730   8.768  1.00 20.00    +0.038 H 
ATOM     57 H57  LIG A   1      19.155  22.820  11.507  1.00 20.00    +0.055 H 
ATOM     58 H58  LIG A   1      19.277  20.926  12.928  1.00 20.00    +0.119 HD
ATOM     59 H59  LIG A   1      20.816  21.242  13.359  1.00 20.00    +0.119 HD
ATOM     60 H60  LIG A   1      21.903  23.368  12.739  1.00 20.00    +0.029 H 
ATOM     61 H61  LIG A   1      21.497  23.976  11.149  1.00 20.00    +0.029 H 
ATOM     62 H62  LIG A   1      21.122  25.676  12.825  1.00 20.00    +0.029 H 
ATOM     63 H63  LIG A   1      19.630  25.273  11.994  1.00 20.00    +0.029 H 
ATOM     64 H64  LIG A   1      20.386  24.144  14.743  1.00 20.00    +0.049 H 
ATOM     65 H65  LIG A   1      18.809  23.997  13.959  1.00 20.00    +0.049 H 
ATOM     66 H66  LIG A   1      20.092  26.486  14.922  1.00 20.00    +0.163 HD
ATOM     67 H67  LIG A   1      16.710  26.973  13.179  1.00 20.00    +0.191 HD
ATOM     68 H68  LIG A   1      17.267  28.280  14.756  1.00 20.00    +0.159 HD
ATOM     69 H69  LIG A   1      18.405  27.740  15.841  1.00 20.00    +0.159 HD
ATOM     70 H70  LIG A   1      22.401  12.452   3.530  1.00 20.00    +0.118 HD
ATOM     71 H71  LIG A   1      23.802  13.104   4.041  1.00 20.00    +0.118 HD
ATOM     72 H72  LIG A   1      23.154  12.892   6.339  1.00 20.00    +0.043 H 
ATOM     73 H73  LIG A   1      21.637  12.174   5.794  1.00 20.00    +0.043 H 
ATOM     74 H74  LIG A   1      21.093  14.276   4.528  1.00 20.00    +0.028 H 
ATOM     75 H75  LIG A   1      22.619  14.988   5.061  1.00 20.00    +0.028 H 
ATOM     76 H76  LIG A   1      20.377  14.031   6.929  1.00 20.00    +0.028 H 
ATOM     77 H77  LIG A   1      21.875  14.794   7.452  1.00 20.00    +0.028 H 
ATOM     78 H78  LIG A   1      19.936  16.360   7.415  1.00 20.00    +0.043 H 
ATOM     79 H79  LIG A   1      19.729  16.076   5.680  1.00 20.00    +0.043 H 
ATOM     80 H80  LIG A   1      22.111  17.239   6.987  1.00 20.00    +0.122 HD
ATOM     81 H81  LIG A   1      20.232  18.750   6.889  1.00 20.00    +0.043 H 
ATOM     82 H82  LIG A   1      20.120  18.409   5.149  1.00 20.00    +0.043 H 
ATOM     83 H83  LIG A   1      22.531  19.647   6.585  1.00 20.00    +0.030 H 
ATOM     84 H84  LIG A   1      22.504  19.201   4.883  1.00 20.00    +0.030 H 
ATOM     85 H85  LIG A   1      22.035  21.556   4.947  1.00 20.00    +0.049 H 
ATOM     86 H86  LIG A   1      20.566  20.737   4.492  1.00 20.00    +0.049 H 
ATOM     87 H87  LIG A   1      19.631  21.072   6.633  1.00 20.00    +0.160 HD
ATOM     88 H88  LIG A   1      23.150  22.226   6.732  1.00 20.00    +0.064 H 
ATOM     89 H89  LIG A   1      24.074  23.437   8.616  1.00 20.00    +0.063 H 
ATOM     90 H90  LIG A   1      24.955  24.538  10.644  1.00 20.00    +0.066 H 
ATOM     91 H91  LIG A   1      24.708  25.957  12.945  1.00 20.00    +0.066 H 
ATOM     92 H92  LIG A   1      23.410  27.216  14.642  1.00 20.00    +0.063 H 
ATOM     93 H93  LIG A   1      22.098  28.210  16.418  1.00 20.00    +0.064 H 
ATOM     94 H94  LIG A   1      18.575  27.273  17.057  1.00 20.00    +0.160 HD
ATOM     95 H95  LIG A   1      19.247  28.349  18.866  1.00 20.00    +0.049 H 
ATOM     96 H96  LIG A   1      20.900  28.116  18.355  1.00 20.00    +0.049 H 
ATOM     97 H97  LIG A   1      20.570  30.502  18.571  1.00 20.00    +0.030 H 
ATOM     98 H98  LIG A   1      20.656  30.182  16.844  1.00 20.00    +0.030 H 
ATOM     99 H99  LIG A   1      18.856  31.716  17.169  1.00 20.00    +0.043 H 
ATOM    100 H100 LIG A   1      18.137  30.163  16.740  1.00 20.00    +0.043 H 
ATOM    101 H101 LIG A   1      18.411  31.349  19.434  1.00 20.00    +0.122 HD
ATOM    102 H102 LIG A   1      16.172  31.564  19.554  1.00 20.00    +0.043 H 
ATOM    103 H103 LIG A   1      16.591  32.177  17.966  1.00 20.00    +0.043 H 
ATOM    104 H104 LIG A   1      15.921  29.970  16.949  1.00 20.00    +0.028 H 
ATOM    105 H105 LIG A   1      14.624  30.741  17.847  1.00 20.00    +0.028 H 
ATOM    106 H106 LIG A   1      15.091  29.260  19.818  1.00 20.00    +0.028 H 
ATOM    107 H107 LIG A   1      16.420  28.507  18.947  1.00 20.00    +0.028 H 
ATOM    108 H108 LIG A   1      14.841  27.660  17.205  1.00 20.00    +0.043 H 
ATOM    109 H109 LIG A   1      14.525  27.039  18.821  1.00 20.00    +0.043 H 
ATOM    110 H110 LIG A   1      12.808  28.720  19.046  1.00 20.00    +0.118 HD
ATOM    111 H111 LIG A   1      13.044  29.202  17.505  1.00 20.00    +0.118 HD
ATOM    112 H112 LIG A   1      18.604  26.126  15.022  1.00 20.00    +0.064 H 
ATOM    113 H113 LIG A   1      19.917  25.127  13.224  1.00 20.00    +0.063 H 
ATOM    114 H114 LIG A   1      20.185  23.542  10.466  1.00 20.00    +0.063 H 
ATOM    115 H115 LIG A   1      19.258  22.329   8.564  1.00 20.00    +0.064 H 
ENDROOT
TORSDOF 0
                                                                                                                      
ENDMDL
MODEL 4
REMARK VINA RESULT:   -10.727      8.489     14.114
REMARK INTER + INTRA:         -10.727
REMARK INTER:                 -10.727
REMARK INTRA:                   0.000
REMARK UNBOUND:                 0.000
ROOT
ATOM      1 C1   LIG A   1      11.474  28.535  20.249  1.00 20.00    -0.056 C 
ATOM      2 C2   LIG A   1      10.768  28.848  18.940  1.00 20.00    -0.002 C 
ATOM      3 S3   LIG A   1      11.650  28.136  17.521  1.00 20.00    -0.087 SA
ATOM      4 C4   LIG A   1      13.012  29.253  17.410  1.00 20.00    +0.205 C 
ATOM      5 O5   LIG A   1      12.989  30.362  17.938  1.00 20.00    -0.285 OA
ATOM      6 C6   LIG A   1      14.181  28.758  16.536  1.00 20.00    +0.074 C 
ATOM      7 N7   LIG A   1      14.209  29.536  15.277  1.00 20.00    -0.321 NA
ATOM      8 C8   LIG A   1      15.499  28.936  17.309  1.00 20.00    -0.028 C 
ATOM      9 C9   LIG A   1      16.651  28.049  16.823  1.00 20.00    -0.034 C 
ATOM     10 C10  LIG A   1      17.037  28.240  15.356  1.00 20.00    +0.018 C 
ATOM     11 N11  LIG A   1      18.293  27.559  15.066  1.00 20.00    -0.357 NA
ATOM     12 C12  LIG A   1      18.369  26.214  14.947  1.00 20.00    +0.185 C 
ATOM     13 N13  LIG A   1      17.372  25.408  14.947  1.00 20.00    -0.270 NA
ATOM     14 N14  LIG A   1      19.648  25.809  14.813  1.00 20.00    -0.370 NA
ATOM     15 N15  LIG A   1       2.703  32.900  20.699  1.00 20.00    -0.330 NA
ATOM     16 C16  LIG A   1       3.584  32.701  19.553  1.00 20.00    -0.008 C 
ATOM     17 C17  LIG A   1       4.461  31.463  19.743  1.00 20.00    -0.040 C 
ATOM     18 C18  LIG A   1       5.388  31.256  18.539  1.00 20.00    -0.039 C 
ATOM     19 C19  LIG A   1       6.241  29.989  18.651  1.00 20.00    -0.005 C 
ATOM     20 N20  LIG A   1       7.156  30.070  19.790  1.00 20.00    -0.317 NA
ATOM     21 C21  LIG A   1       7.928  28.834  19.939  1.00 20.00    -0.003 C 
ATOM     22 C22  LIG A   1       8.876  28.960  21.134  1.00 20.00    -0.023 C 
ATOM     23 C23  LIG A   1       9.593  27.646  21.450  1.00 20.00    +0.016 C 
ATOM     24 N24  LIG A   1      10.517  27.239  20.401  1.00 20.00    -0.385 NA
ATOM     25 C25  LIG A   1      11.755  27.832  20.189  1.00 20.00    +0.034 A 
ATOM     26 C26  LIG A   1      12.385  28.676  21.107  1.00 20.00    -0.038 A 
ATOM     27 C27  LIG A   1      13.677  29.175  20.876  1.00 20.00    -0.049 A 
ATOM     28 C28  LIG A   1      14.392  28.826  19.725  1.00 20.00    +0.017 A 
ATOM     29 C29  LIG A   1      15.747  29.327  19.504  1.00 20.00    +0.134 A 
ATOM     30 C30  LIG A   1      16.570  30.219  20.163  1.00 20.00    -0.015 A 
ATOM     31 C31  LIG A   1      17.794  30.251  19.449  1.00 20.00    -0.015 A 
ATOM     32 C32  LIG A   1      17.658  29.381  18.386  1.00 20.00    +0.134 A 
ATOM     33 C33  LIG A   1      18.529  28.948  17.297  1.00 20.00    +0.017 A 
ATOM     34 C34  LIG A   1      19.877  29.326  17.262  1.00 20.00    -0.049 A 
ATOM     35 C35  LIG A   1      20.720  28.905  16.222  1.00 20.00    -0.038 A 
ATOM     36 C36  LIG A   1      20.244  28.119  15.170  1.00 20.00    +0.034 A 
ATOM     37 N37  LIG A   1      21.041  27.614  14.152  1.00 20.00    -0.385 NA
ATOM     38 C38  LIG A   1      22.379  28.114  13.857  1.00 20.00    +0.016 C 
ATOM     39 C39  LIG A   1      23.445  27.304  14.598  1.00 20.00    -0.023 C 
ATOM     40 C40  LIG A   1      23.546  25.854  14.117  1.00 20.00    -0.003 C 
ATOM     41 N41  LIG A   1      24.092  25.786  12.756  1.00 20.00    -0.317 NA
ATOM     42 C42  LIG A   1      24.076  24.422  12.221  1.00 20.00    -0.005 C 
ATOM     43 C43  LIG A   1      22.691  23.960  11.747  1.00 20.00    -0.039 C 
ATOM     44 C44  LIG A   1      22.115  24.855  10.643  1.00 20.00    -0.040 C 
ATOM     45 C45  LIG A   1      20.722  24.426  10.171  1.00 20.00    -0.008 C 
ATOM     46 N46  LIG A   1      20.715  23.128   9.508  1.00 20.00    -0.330 NA
ATOM     47 C47  LIG A   1      18.902  27.721  15.225  1.00 20.00    -0.038 A 
ATOM     48 C48  LIG A   1      18.055  28.135  16.263  1.00 20.00    -0.049 A 
ATOM     49 O49  LIG A   1      16.409  28.826  18.420  1.00 20.00    -0.456 OA
ATOM     50 C50  LIG A   1      13.774  27.966  18.812  1.00 20.00    -0.049 A 
ATOM     51 C51  LIG A   1      12.483  27.471  19.049  1.00 20.00    -0.038 A 
ATOM     52 H52  LIG A   1      10.899  28.939  21.088  1.00 20.00    +0.024 H 
ATOM     53 H53  LIG A   1      11.573  27.455  20.404  1.00 20.00    +0.024 H 
ATOM     54 H54  LIG A   1      12.472  28.985  20.291  1.00 20.00    +0.024 H 
ATOM     55 H55  LIG A   1       9.766  28.406  18.959  1.00 20.00    +0.038 H 
ATOM     56 H56  LIG A   1      10.640  29.928  18.813  1.00 20.00    +0.038 H 
ATOM     57 H57  LIG A   1      14.045  27.698  16.297  1.00 20.00    +0.055 H 
ATOM     58 H58  LIG A   1      13.341  29.363  14.764  1.00 20.00    +0.119 HD
ATOM     59 H59  LIG A   1      14.198  30.532  15.509  1.00 20.00    +0.119 HD
ATOM     60 H60  LIG A   1      15.816  29.988  17.289  1.00 20.00    +0.029 H 
ATOM     61 H61  LIG A   1      15.330  28.700  18.369  1.00 20.00    +0.029 H 
ATOM     62 H62  LIG A   1      17.524  28.257  17.457  1.00 20.00    +0.029 H 
ATOM     63 H63  LIG A   1      16.388  26.999  17.003  1.00 20.00    +0.029 H 
ATOM     64 H64  LIG A   1      17.179  29.307  15.145  1.00 20.00    +0.049 H 
ATOM     65 H65  LIG A   1      16.254  27.874  14.683  1.00 20.00    +0.049 H 
ATOM     66 H66  LIG A   1      19.082  27.960  15.559  1.00 20.00    +0.163 HD
ATOM     67 H67  LIG A   1      17.705  24.448  14.862  1.00 20.00    +0.191 HD
ATOM     68 H68  LIG A   1      19.753  24.860  14.479  1.00 20.00    +0.159 HD
ATOM     69 H69  LIG A   1      20.189  26.446  14.238  1.00 20.00    +0.159 HD
ATOM     70 H70  LIG A   1       2.131  32.066  20.839  1.00 20.00    +0.118 HD
ATOM     71 H71  LIG A   1       3.267  32.993  21.545  1.00 20.00    +0.118 HD
ATOM     72 H72  LIG A   1       4.209  33.592  19.424  1.00 20.00    +0.043 H 
ATOM     73 H73  LIG A   1       2.972  32.598  18.650  1.00 20.00    +0.043 H 
ATOM     74 H74  LIG A   1       3.828  30.576  19.874  1.00 20.00    +0.028 H 
ATOM     75 H75  LIG A   1       5.054  31.575  20.659  1.00 20.00    +0.028 H 
ATOM     76 H76  LIG A   1       4.783  31.185  17.626  1.00 20.00    +0.028 H 
ATOM     77 H77  LIG A   1       6.038  32.132  18.417  1.00 20.00    +0.028 H 
ATOM     78 H78  LIG A   1       6.809  29.865  17.724  1.00 20.00    +0.043 H 
ATOM     79 H79  LIG A   1       5.578  29.122  18.756  1.00 20.00    +0.043 H 
ATOM     80 H80  LIG A   1       7.795  30.856  19.656  1.00 20.00    +0.122 HD
ATOM     81 H81  LIG A   1       8.502  28.636  19.027  1.00 20.00    +0.043 H 
ATOM     82 H82  LIG A   1       7.245  27.991  20.103  1.00 20.00    +0.043 H 
ATOM     83 H83  LIG A   1       9.600  29.762  20.953  1.00 20.00    +0.030 H 
ATOM     84 H84  LIG A   1       8.300  29.250  22.022  1.00 20.00    +0.030 H 
ATOM     85 H85  LIG A   1      10.108  27.717  22.415  1.00 20.00    +0.049 H 
ATOM     86 H86  LIG A   1       8.852  26.849  21.575  1.00 20.00    +0.049 H 
ATOM     87 H87  LIG A   1      10.076  26.886  19.557  1.00 20.00    +0.160 HD
ATOM     88 H88  LIG A   1      11.892  28.961  22.031  1.00 20.00    +0.064 H 
ATOM     89 H89  LIG A   1      14.118  29.826  21.627  1.00 20.00    +0.063 H 
ATOM     90 H90  LIG A   1      16.325  30.777  21.056  1.00 20.00    +0.066 H 
ATOM     91 H91  LIG A   1      18.668  30.838  19.687  1.00 20.00    +0.066 H 
ATOM     92 H92  LIG A   1      20.301  29.942  18.049  1.00 20.00    +0.063 H 
ATOM     93 H93  LIG A   1      21.762  29.205  16.265  1.00 20.00    +0.064 H 
ATOM     94 H94  LIG A   1      20.525  27.328  13.325  1.00 20.00    +0.160 HD
ATOM     95 H95  LIG A   1      22.542  28.043  12.774  1.00 20.00    +0.049 H 
ATOM     96 H96  LIG A   1      22.468  29.180  14.098  1.00 20.00    +0.049 H 
ATOM     97 H97  LIG A   1      24.417  27.799  14.477  1.00 20.00    +0.030 H 
ATOM     98 H98  LIG A   1      23.231  27.297  15.673  1.00 20.00    +0.030 H 
ATOM     99 H99  LIG A   1      24.208  25.303  14.797  1.00 20.00    +0.043 H 
ATOM    100 H100 LIG A   1      22.559  25.383  14.177  1.00 20.00    +0.043 H 
ATOM    101 H101 LIG A   1      25.055  26.119  12.776  1.00 20.00    +0.122 HD
ATOM    102 H102 LIG A   1      24.760  24.388  11.365  1.00 20.00    +0.043 H 
ATOM    103 H103 LIG A   1      24.476  23.714  12.957  1.00 20.00    +0.043 H 
ATOM    104 H104 LIG A   1      21.991  23.917  12.588  1.00 20.00    +0.028 H 
ATOM    105 H105 LIG A   1      22.793  22.934  11.375  1.00 20.00    +0.028 H 
ATOM    106 H106 LIG A   1      22.805  24.877   9.789  1.00 20.00    +0.028 H 
ATOM    107 H107 LIG A   1      22.039  25.886  11.008  1.00 20.00    +0.028 H 
ATOM    108 H108 LIG A   1      20.027  24.406  11.016  1.00 20.00    +0.043 H 
ATOM    109 H109 LIG A   1      20.344  25.174   9.465  1.00 20.00    +0.043 H 
ATOM    110 H110 LIG A   1      21.404  23.124   8.757  1.00 20.00    +0.118 HD
ATOM    111 H111 LIG A   1      20.997  22.400  10.161  1.00 20.00    +0.118 HD
ATOM    112 H112 LIG A   1      18.494  27.077  14.451  1.00 20.00    +0.064 H 
ATOM    113 H113 LIG A   1      17.017  27.808  16.251  1.00 20.00    +0.063 H 
ATOM    114 H114 LIG A   1      14.295  27.654  17.910  1.00 20.00    +0.063 H 
ATOM    115 H115 LIG A   1      12.055  26.780  18.326  1.00 20.00    +0.064 H 
ENDROOT
TORSDOF 0
                                                                                                                      
ENDMDL
MODEL 5
REMARK VINA RESULT:   -10.518      3.342      6.014
REMARK INTER + INTRA:         -10.518
REMARK INTER:                 -10.518
REMARK INTRA:                   0.000
REMARK UNBOUND:                 0.000
ROOT
ATOM      1 C1   LIG A   1      21.557  17.935  11.140  1.00 20.00    -0.056 C 
ATOM      2 C2   LIG A   1      21.035  19.268  10.630  1.00 20.00    -0.002 C 
ATOM      3 S3   LIG A   1      19.546  19.055   9.612  1.00 20.00    -0.087 SA
ATOM      4 C4   LIG A   1      20.270  18.422   8.132  1.00 20.00    +0.205 C 
ATOM      5 O5   LIG A   1      21.467  18.551   7.887  1.00 20.00    -0.285 OA
ATOM      6 C6   LIG A   1      19.272  17.779   7.151  1.00 20.00    +0.074 C 
ATOM      7 N7   LIG A   1      19.100  18.668   5.980  1.00 20.00    -0.321 NA
ATOM      8 C8   LIG A   1      19.809  16.406   6.712  1.00 20.00    -0.028 C 
ATOM      9 C9   LIG A   1      18.744  15.443   6.175  1.00 20.00    -0.034 C 
ATOM     10 C10  LIG A   1      17.963  15.956   4.965  1.00 20.00    +0.018 C 
ATOM     11 N11  LIG A   1      17.174  14.880   4.375  1.00 20.00    -0.357 NA
ATOM     12 C12  LIG A   1      16.042  14.420   4.954  1.00 20.00    +0.185 C 
ATOM     13 N13  LIG A   1      15.471  14.929   5.983  1.00 20.00    -0.270 NA
ATOM     14 N14  LIG A   1      15.565  13.342   4.299  1.00 20.00    -0.370 NA
ATOM     15 N15  LIG A   1      25.786  26.111  14.524  1.00 20.00    -0.330 NA
ATOM     16 C16  LIG A   1      24.868  25.935  13.404  1.00 20.00    -0.008 C 
ATOM     17 C17  LIG A   1      23.963  24.722  13.621  1.00 20.00    -0.040 C 
ATOM     18 C18  LIG A   1      23.000  24.537  12.442  1.00 20.00    -0.039 C 
ATOM     19 C19  LIG A   1      22.025  23.373  12.643  1.00 20.00    -0.005 C 
ATOM     20 N20  LIG A   1      22.737  22.098  12.719  1.00 20.00    -0.317 NA
ATOM     21 C21  LIG A   1      21.815  20.989  12.975  1.00 20.00    -0.003 C 
ATOM     22 C22  LIG A   1      22.595  19.674  13.041  1.00 20.00    -0.023 C 
ATOM     23 C23  LIG A   1      21.718  18.497  13.470  1.00 20.00    +0.016 C 
ATOM     24 N24  LIG A   1      20.694  18.166  12.489  1.00 20.00    -0.385 NA
ATOM     25 C25  LIG A   1      20.953  17.503  11.297  1.00 20.00    +0.034 A 
ATOM     26 C26  LIG A   1      22.143  16.827  11.020  1.00 20.00    -0.038 A 
ATOM     27 C27  LIG A   1      22.314  16.098   9.832  1.00 20.00    -0.049 A 
ATOM     28 C28  LIG A   1      21.285  16.005   8.888  1.00 20.00    +0.017 A 
ATOM     29 C29  LIG A   1      21.459  15.222   7.666  1.00 20.00    +0.134 A 
ATOM     30 C30  LIG A   1      22.515  14.543   7.093  1.00 20.00    -0.015 A 
ATOM     31 C31  LIG A   1      22.025  13.955   5.899  1.00 20.00    -0.015 A 
ATOM     32 C32  LIG A   1      20.694  14.308   5.799  1.00 20.00    +0.134 A 
ATOM     33 C33  LIG A   1      19.628  14.030   4.840  1.00 20.00    +0.017 A 
ATOM     34 C34  LIG A   1      19.821  13.116   3.797  1.00 20.00    -0.049 A 
ATOM     35 C35  LIG A   1      18.797  12.840   2.878  1.00 20.00    -0.038 A 
ATOM     36 C36  LIG A   1      17.559  13.483   2.950  1.00 20.00    +0.034 A 
ATOM     37 N37  LIG A   1      16.486  13.203   2.116  1.00 20.00    -0.385 NA
ATOM     38 C38  LIG A   1      16.613  12.471   0.861  1.00 20.00    +0.016 C 
ATOM     39 C39  LIG A   1      16.373  10.975   1.069  1.00 20.00    -0.023 C 
ATOM     40 C40  LIG A   1      14.933  10.643   1.472  1.00 20.00    -0.003 C 
ATOM     41 N41  LIG A   1      14.005  10.886   0.361  1.00 20.00    -0.317 NA
ATOM     42 C42  LIG A   1      12.607  10.704   0.759  1.00 20.00    -0.005 C 
ATOM     43 C43  LIG A   1      12.035  11.880   1.564  1.00 20.00    -0.039 C 
ATOM     44 C44  LIG A   1      12.088  13.205   0.795  1.00 20.00    -0.040 C 
ATOM     45 C45  LIG A   1      11.545  14.397   1.590  1.00 20.00    -0.008 C 
ATOM     46 N46  LIG A   1      10.118  14.296   1.872  1.00 20.00    -0.330 NA
ATOM     47 C47  LIG A   1      17.363  14.375   4.012  1.00 20.00    -0.038 A 
ATOM     48 C48  LIG A   1      18.380  14.653   4.936  1.00 20.00    -0.049 A 
ATOM     49 O49  LIG A   1      20.355  15.083   6.873  1.00 20.00    -0.456 OA
ATOM     50 C50  LIG A   1      20.084  16.663   9.168  1.00 20.00    -0.049 A 
ATOM     51 C51  LIG A   1      19.921  17.389  10.357  1.00 20.00    -0.038 A 
ATOM     52 H52  LIG A   1      22.427  18.098  11.784  1.00 20.00    +0.024 H 
ATOM     53 H53  LIG A   1      20.801  17.407  11.731  1.00 20.00    +0.024 H 
ATOM     54 H54  LIG A   1      21.875  17.282  10.321  1.00 20.00    +0.024 H 
ATOM     55 H55  LIG A   1      20.762  19.896  11.485  1.00 20.00    +0.038 H 
ATOM     56 H56  LIG A   1      21.811  19.805  10.073  1.00 20.00    +0.038 H 
ATOM     57 H57  LIG A   1      18.301  17.644   7.642  1.00 20.00    +0.055 H 
ATOM     58 H58  LIG A   1      18.700  19.555   6.295  1.00 20.00    +0.119 HD
ATOM     59 H59  LIG A   1      20.025  18.900   5.609  1.00 20.00    +0.119 HD
ATOM     60 H60  LIG A   1      20.602  16.528   5.960  1.00 20.00    +0.029 H 
ATOM     61 H61  LIG A   1      20.290  15.916   7.569  1.00 20.00    +0.029 H 
ATOM     62 H62  LIG A   1      19.246  14.502   5.911  1.00 20.00    +0.029 H 
ATOM     63 H63  LIG A   1      18.048  15.198   6.988  1.00 20.00    +0.029 H 
ATOM     64 H64  LIG A   1      18.660  16.317   4.199  1.00 20.00    +0.049 H 
ATOM     65 H65  LIG A   1      17.307  16.791   5.233  1.00 20.00    +0.049 H 
ATOM     66 H66  LIG A   1      17.746  14.145   3.978  1.00 20.00    +0.163 HD
ATOM     67 H67  LIG A   1      14.646  14.381   6.225  1.00 20.00    +0.191 HD
ATOM     68 H68  LIG A   1      14.609  13.105   4.528  1.00 20.00    +0.159 HD
ATOM     69 H69  LIG A   1      15.676  13.429   3.296  1.00 20.00    +0.159 HD
ATOM     70 H70  LIG A   1      25.254  26.204  15.390  1.00 20.00    +0.118 HD
ATOM     71 H71  LIG A   1      26.348  25.266  14.634  1.00 20.00    +0.118 HD
ATOM     72 H72  LIG A   1      25.448  25.816  12.482  1.00 20.00    +0.043 H 
ATOM     73 H73  LIG A   1      24.266  26.844  13.294  1.00 20.00    +0.043 H 
ATOM     74 H74  LIG A   1      23.387  24.850  14.547  1.00 20.00    +0.028 H 
ATOM     75 H75  LIG A   1      24.581  23.825  13.746  1.00 20.00    +0.028 H 
ATOM     76 H76  LIG A   1      22.416  25.456  12.305  1.00 20.00    +0.028 H 
ATOM     77 H77  LIG A   1      23.571  24.388  11.517  1.00 20.00    +0.028 H 
ATOM     78 H78  LIG A   1      21.320  23.358  11.805  1.00 20.00    +0.043 H 
ATOM     79 H79  LIG A   1      21.450  23.545  13.561  1.00 20.00    +0.043 H 
ATOM     80 H80  LIG A   1      23.231  21.933  11.840  1.00 20.00    +0.122 HD
ATOM     81 H81  LIG A   1      21.061  20.936  12.182  1.00 20.00    +0.043 H 
ATOM     82 H82  LIG A   1      21.297  21.154  13.928  1.00 20.00    +0.043 H 
ATOM     83 H83  LIG A   1      23.068  19.472  12.073  1.00 20.00    +0.030 H 
ATOM     84 H84  LIG A   1      23.406  19.773  13.774  1.00 20.00    +0.030 H 
ATOM     85 H85  LIG A   1      22.339  17.622  13.693  1.00 20.00    +0.049 H 
ATOM     86 H86  LIG A   1      21.215  18.744  14.412  1.00 20.00    +0.049 H 
ATOM     87 H87  LIG A   1      19.923  18.825  12.439  1.00 20.00    +0.160 HD
ATOM     88 H88  LIG A   1      22.968  16.840  11.726  1.00 20.00    +0.064 H 
ATOM     89 H89  LIG A   1      23.261  15.590   9.672  1.00 20.00    +0.063 H 
ATOM     90 H90  LIG A   1      23.520  14.470   7.485  1.00 20.00    +0.066 H 
ATOM     91 H91  LIG A   1      22.579  13.346   5.201  1.00 20.00    +0.066 H 
ATOM     92 H92  LIG A   1      20.765  12.590   3.688  1.00 20.00    +0.063 H 
ATOM     93 H93  LIG A   1      18.995  12.099   2.110  1.00 20.00    +0.064 H 
ATOM     94 H94  LIG A   1      15.781  13.934   2.088  1.00 20.00    +0.160 HD
ATOM     95 H95  LIG A   1      15.878  12.873   0.152  1.00 20.00    +0.049 H 
ATOM     96 H96  LIG A   1      17.592  12.644   0.398  1.00 20.00    +0.049 H 
ATOM     97 H97  LIG A   1      16.627  10.440   0.144  1.00 20.00    +0.030 H 
ATOM     98 H98  LIG A   1      17.045  10.591   1.845  1.00 20.00    +0.030 H 
ATOM     99 H99  LIG A   1      14.882   9.585   1.757  1.00 20.00    +0.043 H 
ATOM    100 H100 LIG A   1      14.661  11.229   2.357  1.00 20.00    +0.043 H 
ATOM    101 H101 LIG A   1      14.220  10.232  -0.390  1.00 20.00    +0.122 HD
ATOM    102 H102 LIG A   1      12.009  10.592  -0.154  1.00 20.00    +0.043 H 
ATOM    103 H103 LIG A   1      12.483   9.769   1.319  1.00 20.00    +0.043 H 
ATOM    104 H104 LIG A   1      12.565  11.986   2.517  1.00 20.00    +0.028 H 
ATOM    105 H105 LIG A   1      10.995  11.637   1.812  1.00 20.00    +0.028 H 
ATOM    106 H106 LIG A   1      11.535  13.107  -0.148  1.00 20.00    +0.028 H 
ATOM    107 H107 LIG A   1      13.127  13.432   0.525  1.00 20.00    +0.028 H 
ATOM    108 H108 LIG A   1      12.094  14.505   2.531  1.00 20.00    +0.043 H 
ATOM    109 H109 LIG A   1      11.717  15.312   1.013  1.00 20.00    +0.043 H 
ATOM    110 H110 LIG A   1       9.609  14.137   1.004  1.00 20.00    +0.118 HD
ATOM    111 H111 LIG A   1       9.935  13.490   2.466  1.00 20.00    +0.118 HD
ATOM    112 H112 LIG A   1      16.404  14.872   4.135  1.00 20.00    +0.064 H 
ATOM    113 H113 LIG A   1      18.180  15.365   5.734  1.00 20.00    +0.063 H 
ATOM    114 H114 LIG A   1      19.250  16.608   8.472  1.00 20.00    +0.063 H 
ATOM    115 H115 LIG A   1      18.958  17.859  10.547  1.00 20.00    +0.064 H 
ENDROOT
TORSDOF 0
                                                                                                                      
ENDMDL
MODEL 6
REMARK VINA RESULT:   -10.239      1.983      2.533
REMARK INTER + INTRA:         -10.239
REMARK INTER:                 -10.239
REMARK INTRA:                   0.000
REMARK UNBOUND:                 0.000
ROOT
ATOM      1 C1   LIG A   1      23.769  22.748  12.351  1.00 20.00    -0.056 C 
ATOM      2 C2   LIG A   1      22.434  23.046  13.014  1.00 20.00    -0.002 C 
ATOM      3 S3   LIG A   1      21.295  21.638  12.877  1.00 20.00    -0.087 SA
ATOM      4 C4   LIG A   1      20.833  21.777  11.179  1.00 20.00    +0.205 C 
ATOM      5 O5   LIG A   1      20.994  22.816  10.544  1.00 20.00    -0.285 OA
ATOM      6 C6   LIG A   1      20.142  20.529  10.596  1.00 20.00    +0.074 C 
ATOM      7 N7   LIG A   1      18.704  20.819  10.395  1.00 20.00    -0.321 NA
ATOM      8 C8   LIG A   1      20.810  20.161   9.261  1.00 20.00    -0.028 C 
ATOM      9 C9   LIG A   1      20.609  18.706   8.824  1.00 20.00    -0.034 C 
ATOM     10 C10  LIG A   1      19.150  18.279   8.655  1.00 20.00    +0.018 C 
ATOM     11 N11  LIG A   1      19.072  16.982   7.992  1.00 20.00    -0.357 NA
ATOM     12 C12  LIG A   1      19.371  15.830   8.633  1.00 20.00    +0.185 C 
ATOM     13 N13  LIG A   1      19.629  15.717   9.883  1.00 20.00    -0.270 NA
ATOM     14 N14  LIG A   1      19.355  14.783   7.782  1.00 20.00    -0.370 NA
ATOM     15 N15  LIG A   1      22.941  31.083  17.451  1.00 20.00    -0.330 NA
ATOM     16 C16  LIG A   1      21.904  30.159  17.007  1.00 20.00    -0.008 C 
ATOM     17 C17  LIG A   1      22.457  28.741  16.864  1.00 20.00    -0.040 C 
ATOM     18 C18  LIG A   1      21.366  27.770  16.396  1.00 20.00    -0.039 C 
ATOM     19 C19  LIG A   1      21.854  26.321  16.302  1.00 20.00    -0.005 C 
ATOM     20 N20  LIG A   1      22.903  26.185  15.292  1.00 20.00    -0.317 NA
ATOM     21 C21  LIG A   1      23.418  24.814  15.243  1.00 20.00    -0.003 C 
ATOM     22 C22  LIG A   1      24.507  24.711  14.173  1.00 20.00    -0.023 C 
ATOM     23 C23  LIG A   1      25.204  23.349  14.181  1.00 20.00    +0.016 C 
ATOM     24 N24  LIG A   1      24.322  22.258  13.790  1.00 20.00    -0.385 NA
ATOM     25 C25  LIG A   1      23.926  22.017  12.481  1.00 20.00    +0.034 A 
ATOM     26 C26  LIG A   1      24.533  22.590  11.362  1.00 20.00    -0.038 A 
ATOM     27 C27  LIG A   1      24.148  22.239  10.058  1.00 20.00    -0.049 A 
ATOM     28 C28  LIG A   1      23.153  21.282   9.832  1.00 20.00    +0.017 A 
ATOM     29 C29  LIG A   1      22.776  20.901   8.472  1.00 20.00    +0.134 A 
ATOM     30 C30  LIG A   1      23.120  21.344   7.211  1.00 20.00    -0.015 A 
ATOM     31 C31  LIG A   1      22.419  20.531   6.286  1.00 20.00    -0.015 A 
ATOM     32 C32  LIG A   1      21.676  19.634   7.027  1.00 20.00    +0.134 A 
ATOM     33 C33  LIG A   1      20.765  18.540   6.700  1.00 20.00    +0.017 A 
ATOM     34 C34  LIG A   1      20.601  18.112   5.377  1.00 20.00    -0.049 A 
ATOM     35 C35  LIG A   1      19.733  17.056   5.060  1.00 20.00    -0.038 A 
ATOM     36 C36  LIG A   1      18.979  16.411   6.044  1.00 20.00    +0.034 A 
ATOM     37 N37  LIG A   1      18.157  15.318   5.804  1.00 20.00    -0.385 NA
ATOM     38 C38  LIG A   1      17.710  14.926   4.473  1.00 20.00    +0.016 C 
ATOM     39 C39  LIG A   1      18.654  13.892   3.857  1.00 20.00    -0.023 C 
ATOM     40 C40  LIG A   1      18.642  12.548   4.592  1.00 20.00    -0.003 C 
ATOM     41 N41  LIG A   1      17.362  11.854   4.402  1.00 20.00    -0.317 NA
ATOM     42 C42  LIG A   1      17.273  10.629   5.202  1.00 20.00    -0.005 C 
ATOM     43 C43  LIG A   1      16.977  10.881   6.686  1.00 20.00    -0.039 C 
ATOM     44 C44  LIG A   1      15.657  11.629   6.908  1.00 20.00    -0.040 C 
ATOM     45 C45  LIG A   1      15.353  11.913   8.383  1.00 20.00    -0.008 C 
ATOM     46 N46  LIG A   1      15.122  10.703   9.164  1.00 20.00    -0.330 NA
ATOM     47 C47  LIG A   1      19.167  16.826   7.368  1.00 20.00    -0.038 A 
ATOM     48 C48  LIG A   1      20.036  17.878   7.693  1.00 20.00    -0.049 A 
ATOM     49 O49  LIG A   1      21.892  19.866   8.357  1.00 20.00    -0.456 OA
ATOM     50 C50  LIG A   1      22.555  20.690  10.949  1.00 20.00    -0.049 A 
ATOM     51 C51  LIG A   1      22.945  21.045  12.248  1.00 20.00    -0.038 A 
ATOM     52 H52  LIG A   1      24.449  23.595  12.486  1.00 20.00    +0.024 H 
ATOM     53 H53  LIG A   1      24.248  21.865  12.789  1.00 20.00    +0.024 H 
ATOM     54 H54  LIG A   1      23.661  22.585  11.273  1.00 20.00    +0.024 H 
ATOM     55 H55  LIG A   1      22.599  23.233  14.080  1.00 20.00    +0.038 H 
ATOM     56 H56  LIG A   1      21.983  23.951  12.594  1.00 20.00    +0.038 H 
ATOM     57 H57  LIG A   1      20.242  19.689  11.292  1.00 20.00    +0.055 H 
ATOM     58 H58  LIG A   1      18.277  21.016  11.304  1.00 20.00    +0.119 HD
ATOM     59 H59  LIG A   1      18.618  21.685   9.858  1.00 20.00    +0.119 HD
ATOM     60 H60  LIG A   1      20.464  20.832   8.462  1.00 20.00    +0.029 H 
ATOM     61 H61  LIG A   1      21.892  20.332   9.339  1.00 20.00    +0.029 H 
ATOM     62 H62  LIG A   1      21.140  18.565   7.872  1.00 20.00    +0.029 H 
ATOM     63 H63  LIG A   1      21.105  18.047   9.549  1.00 20.00    +0.029 H 
ATOM     64 H64  LIG A   1      18.620  19.006   8.029  1.00 20.00    +0.049 H 
ATOM     65 H65  LIG A   1      18.630  18.233   9.618  1.00 20.00    +0.049 H 
ATOM     66 H66  LIG A   1      19.410  17.007   7.038  1.00 20.00    +0.163 HD
ATOM     67 H67  LIG A   1      19.839  14.744  10.105  1.00 20.00    +0.191 HD
ATOM     68 H68  LIG A   1      19.329  13.879   8.235  1.00 20.00    +0.159 HD
ATOM     69 H69  LIG A   1      18.607  14.859   7.102  1.00 20.00    +0.159 HD
ATOM     70 H70  LIG A   1      23.337  30.756  18.333  1.00 20.00    +0.118 HD
ATOM     71 H71  LIG A   1      23.712  31.071  16.781  1.00 20.00    +0.118 HD
ATOM     72 H72  LIG A   1      21.500  30.507  16.050  1.00 20.00    +0.043 H 
ATOM     73 H73  LIG A   1      21.082  30.175  17.732  1.00 20.00    +0.043 H 
ATOM     74 H74  LIG A   1      22.860  28.401  17.827  1.00 20.00    +0.028 H 
ATOM     75 H75  LIG A   1      23.288  28.745  16.149  1.00 20.00    +0.028 H 
ATOM     76 H76  LIG A   1      20.524  27.805  17.100  1.00 20.00    +0.028 H 
ATOM     77 H77  LIG A   1      20.974  28.095  15.423  1.00 20.00    +0.028 H 
ATOM     78 H78  LIG A   1      21.003  25.681  16.046  1.00 20.00    +0.043 H 
ATOM     79 H79  LIG A   1      22.226  26.007  17.284  1.00 20.00    +0.043 H 
ATOM     80 H80  LIG A   1      22.528  26.440  14.377  1.00 20.00    +0.122 HD
ATOM     81 H81  LIG A   1      22.605  24.115  15.017  1.00 20.00    +0.043 H 
ATOM     82 H82  LIG A   1      23.840  24.545  16.220  1.00 20.00    +0.043 H 
ATOM     83 H83  LIG A   1      24.080  24.921  13.185  1.00 20.00    +0.030 H 
ATOM     84 H84  LIG A   1      25.268  25.479  14.358  1.00 20.00    +0.030 H 
ATOM     85 H85  LIG A   1      26.095  23.375  13.544  1.00 20.00    +0.049 H 
ATOM     86 H86  LIG A   1      25.575  23.138  15.190  1.00 20.00    +0.049 H 
ATOM     87 H87  LIG A   1      23.632  21.997  14.488  1.00 20.00    +0.160 HD
ATOM     88 H88  LIG A   1      25.330  23.320  11.473  1.00 20.00    +0.064 H 
ATOM     89 H89  LIG A   1      24.657  22.717   9.225  1.00 20.00    +0.063 H 
ATOM     90 H90  LIG A   1      23.800  22.152   6.979  1.00 20.00    +0.066 H 
ATOM     91 H91  LIG A   1      22.456  20.594   5.208  1.00 20.00    +0.066 H 
ATOM     92 H92  LIG A   1      21.158  18.580   4.570  1.00 20.00    +0.063 H 
ATOM     93 H93  LIG A   1      19.672  16.748   4.021  1.00 20.00    +0.064 H 
ATOM     94 H94  LIG A   1      17.464  15.155   6.528  1.00 20.00    +0.160 HD
ATOM     95 H95  LIG A   1      16.700  14.507   4.559  1.00 20.00    +0.049 H 
ATOM     96 H96  LIG A   1      17.611  15.797   3.814  1.00 20.00    +0.049 H 
ATOM     97 H97  LIG A   1      18.377  13.737   2.806  1.00 20.00    +0.030 H 
ATOM     98 H98  LIG A   1      19.681  14.274   3.856  1.00 20.00    +0.030 H 
ATOM     99 H99  LIG A   1      19.451  11.923   4.197  1.00 20.00    +0.043 H 
ATOM    100 H100 LIG A   1      18.853  12.715   5.655  1.00 20.00    +0.043 H 
ATOM    101 H101 LIG A   1      17.269  11.610   3.417  1.00 20.00    +0.122 HD
ATOM    102 H102 LIG A   1      16.462  10.017   4.790  1.00 20.00    +0.043 H 
ATOM    103 H103 LIG A   1      18.187  10.032   5.097  1.00 20.00    +0.043 H 
ATOM    104 H104 LIG A   1      17.798  11.437   7.154  1.00 20.00    +0.028 H 
ATOM    105 H105 LIG A   1      16.938   9.906   7.187  1.00 20.00    +0.028 H 
ATOM    106 H106 LIG A   1      14.831  11.059   6.464  1.00 20.00    +0.028 H 
ATOM    107 H107 LIG A   1      15.688  12.593   6.385  1.00 20.00    +0.028 H 
ATOM    108 H108 LIG A   1      16.171  12.485   8.834  1.00 20.00    +0.043 H 
ATOM    109 H109 LIG A   1      14.456  12.537   8.444  1.00 20.00    +0.043 H 
ATOM    110 H110 LIG A   1      14.402  10.140   8.715  1.00 20.00    +0.118 HD
ATOM    111 H111 LIG A   1      15.965  10.133   9.184  1.00 20.00    +0.118 HD
ATOM    112 H112 LIG A   1      18.633  16.330   8.174  1.00 20.00    +0.064 H 
ATOM    113 H113 LIG A   1      20.135  18.169   8.736  1.00 20.00    +0.063 H 
ATOM    114 H114 LIG A   1      21.787  19.930  10.824  1.00 20.00    +0.063 H 
ATOM    115 H115 LIG A   1      22.474  20.535  13.085  1.00 20.00    +0.064 H 
ENDROOT
TORSDOF 0
                                                                                                                      
ENDMDL
MODEL 7
REMARK VINA RESULT:   -10.136      5.407     10.353
REMARK INTER + INTRA:         -10.136
REMARK INTER:                 -10.136
REMARK INTRA:                   0.000
REMARK UNBOUND:                 0.000
ROOT
ATOM      1 C1   LIG A   1      18.609  14.425   9.460  1.00 20.00    -0.056 C 
ATOM      2 C2   LIG A   1      18.673  15.858   8.957  1.00 20.00    -0.002 C 
ATOM      3 S3   LIG A   1      17.333  16.211   7.783  1.00 20.00    -0.087 SA
ATOM      4 C4   LIG A   1      17.935  15.359   6.360  1.00 20.00    +0.205 C 
ATOM      5 O5   LIG A   1      19.116  15.038   6.244  1.00 20.00    -0.285 OA
ATOM      6 C6   LIG A   1      16.887  15.132   5.254  1.00 20.00    +0.074 C 
ATOM      7 N7   LIG A   1      17.185  16.025   4.110  1.00 20.00    -0.321 NA
ATOM      8 C8   LIG A   1      16.929  13.659   4.813  1.00 20.00    -0.028 C 
ATOM      9 C9   LIG A   1      15.653  13.158   4.129  1.00 20.00    -0.034 C 
ATOM     10 C10  LIG A   1      15.254  13.925   2.868  1.00 20.00    +0.018 C 
ATOM     11 N11  LIG A   1      14.197  13.219   2.153  1.00 20.00    -0.357 NA
ATOM     12 C12  LIG A   1      12.918  13.207   2.593  1.00 20.00    +0.185 C 
ATOM     13 N13  LIG A   1      12.462  13.888   3.578  1.00 20.00    -0.270 NA
ATOM     14 N14  LIG A   1      12.155  12.383   1.846  1.00 20.00    -0.370 NA
ATOM     15 N15  LIG A   1      25.134  20.456  13.612  1.00 20.00    -0.330 NA
ATOM     16 C16  LIG A   1      24.347  20.633  12.396  1.00 20.00    -0.008 C 
ATOM     17 C17  LIG A   1      23.042  19.840  12.467  1.00 20.00    -0.040 C 
ATOM     18 C18  LIG A   1      22.217  20.026  11.188  1.00 20.00    -0.039 C 
ATOM     19 C19  LIG A   1      20.867  19.303  11.237  1.00 20.00    -0.005 C 
ATOM     20 N20  LIG A   1      21.049  17.855  11.330  1.00 20.00    -0.317 NA
ATOM     21 C21  LIG A   1      19.762  17.164  11.442  1.00 20.00    -0.003 C 
ATOM     22 C22  LIG A   1      19.994  15.654  11.531  1.00 20.00    -0.023 C 
ATOM     23 C23  LIG A   1      18.704  14.883  11.816  1.00 20.00    +0.016 C 
ATOM     24 N24  LIG A   1      17.746  14.955  10.722  1.00 20.00    -0.385 NA
ATOM     25 C25  LIG A   1      17.876  14.246   9.534  1.00 20.00    +0.034 A 
ATOM     26 C26  LIG A   1      18.758  13.179   9.353  1.00 20.00    -0.038 A 
ATOM     27 C27  LIG A   1      18.781  12.442   8.158  1.00 20.00    -0.049 A 
ATOM     28 C28  LIG A   1      17.902  12.736   7.110  1.00 20.00    +0.017 A 
ATOM     29 C29  LIG A   1      17.913  11.947   5.880  1.00 20.00    +0.134 A 
ATOM     30 C30  LIG A   1      18.703  10.928   5.389  1.00 20.00    -0.015 A 
ATOM     31 C31  LIG A   1      18.168  10.565   4.128  1.00 20.00    -0.015 A 
ATOM     32 C32  LIG A   1      17.079  11.385   3.907  1.00 20.00    +0.134 A 
ATOM     33 C33  LIG A   1      16.100  11.522   2.832  1.00 20.00    +0.017 A 
ATOM     34 C34  LIG A   1      16.060  10.604   1.775  1.00 20.00    -0.049 A 
ATOM     35 C35  LIG A   1      15.115  10.727   0.745  1.00 20.00    -0.038 A 
ATOM     36 C36  LIG A   1      14.199  11.781   0.717  1.00 20.00    +0.034 A 
ATOM     37 N37  LIG A   1      13.198  11.919  -0.235  1.00 20.00    -0.385 NA
ATOM     38 C38  LIG A   1      13.188  11.195  -1.500  1.00 20.00    +0.016 C 
ATOM     39 C39  LIG A   1      12.395   9.892  -1.383  1.00 20.00    -0.023 C 
ATOM     40 C40  LIG A   1      10.898  10.114  -1.145  1.00 20.00    -0.003 C 
ATOM     41 N41  LIG A   1      10.254  10.685  -2.335  1.00 20.00    -0.317 NA
ATOM     42 C42  LIG A   1       8.851  11.031  -2.091  1.00 20.00    -0.005 C 
ATOM     43 C43  LIG A   1       8.664  12.332  -1.299  1.00 20.00    -0.039 C 
ATOM     44 C44  LIG A   1       9.285  13.546  -2.000  1.00 20.00    -0.040 C 
ATOM     45 C45  LIG A   1       9.131  14.853  -1.215  1.00 20.00    -0.008 C 
ATOM     46 N46  LIG A   1       7.744  15.285  -1.086  1.00 20.00    -0.330 NA
ATOM     47 C47  LIG A   1      14.226  12.680   1.791  1.00 20.00    -0.038 A 
ATOM     48 C48  LIG A   1      15.165  12.561   2.825  1.00 20.00    -0.049 A 
ATOM     49 O49  LIG A   1      16.930  12.227   4.972  1.00 20.00    -0.456 OA
ATOM     50 C50  LIG A   1      17.003  13.791   7.294  1.00 20.00    -0.049 A 
ATOM     51 C51  LIG A   1      16.985  14.523   8.490  1.00 20.00    -0.038 A 
ATOM     52 H52  LIG A   1      19.401  14.253  10.196  1.00 20.00    +0.024 H 
ATOM     53 H53  LIG A   1      17.652  14.212   9.946  1.00 20.00    +0.024 H 
ATOM     54 H54  LIG A   1      18.756  13.702   8.650  1.00 20.00    +0.024 H 
ATOM     55 H55  LIG A   1      18.555  16.540   9.806  1.00 20.00    +0.038 H 
ATOM     56 H56  LIG A   1      19.649  16.071   8.507  1.00 20.00    +0.038 H 
ATOM     57 H57  LIG A   1      15.886  15.364   5.635  1.00 20.00    +0.055 H 
ATOM     58 H58  LIG A   1      17.105  16.996   4.421  1.00 20.00    +0.119 HD
ATOM     59 H59  LIG A   1      18.165  15.900   3.847  1.00 20.00    +0.119 HD
ATOM     60 H60  LIG A   1      17.790  13.481   4.153  1.00 20.00    +0.029 H 
ATOM     61 H61  LIG A   1      17.098  13.024   5.694  1.00 20.00    +0.029 H 
ATOM     62 H62  LIG A   1      15.801  12.099   3.876  1.00 20.00    +0.029 H 
ATOM     63 H63  LIG A   1      14.829  13.185   4.854  1.00 20.00    +0.029 H 
ATOM     64 H64  LIG A   1      16.115  14.006   2.194  1.00 20.00    +0.049 H 
ATOM     65 H65  LIG A   1      14.924  14.943   3.103  1.00 20.00    +0.049 H 
ATOM     66 H66  LIG A   1      14.499  12.325   1.786  1.00 20.00    +0.163 HD
ATOM     67 H67  LIG A   1      11.472  13.683   3.711  1.00 20.00    +0.191 HD
ATOM     68 H68  LIG A   1      11.160  12.515   1.965  1.00 20.00    +0.159 HD
ATOM     69 H69  LIG A   1      12.401  12.425   0.864  1.00 20.00    +0.159 HD
ATOM     70 H70  LIG A   1      24.581  20.736  14.422  1.00 20.00    +0.118 HD
ATOM     71 H71  LIG A   1      25.332  19.462  13.743  1.00 20.00    +0.118 HD
ATOM     72 H72  LIG A   1      24.942  20.310  11.535  1.00 20.00    +0.043 H 
ATOM     73 H73  LIG A   1      24.136  21.701  12.264  1.00 20.00    +0.043 H 
ATOM     74 H74  LIG A   1      22.454  20.169  13.333  1.00 20.00    +0.028 H 
ATOM     75 H75  LIG A   1      23.271  18.777  12.615  1.00 20.00    +0.028 H 
ATOM     76 H76  LIG A   1      22.029  21.096  11.032  1.00 20.00    +0.028 H 
ATOM     77 H77  LIG A   1      22.793  19.678  10.321  1.00 20.00    +0.028 H 
ATOM     78 H78  LIG A   1      20.304  19.551  10.331  1.00 20.00    +0.043 H 
ATOM     79 H79  LIG A   1      20.297  19.673  12.097  1.00 20.00    +0.043 H 
ATOM     80 H80  LIG A   1      21.543  17.521  10.501  1.00 20.00    +0.122 HD
ATOM     81 H81  LIG A   1      19.134  17.394  10.574  1.00 20.00    +0.043 H 
ATOM     82 H82  LIG A   1      19.238  17.506  12.343  1.00 20.00    +0.043 H 
ATOM     83 H83  LIG A   1      20.464  15.294  10.609  1.00 20.00    +0.030 H 
ATOM     84 H84  LIG A   1      20.697  15.445  12.347  1.00 20.00    +0.030 H 
ATOM     85 H85  LIG A   1      18.932  13.840  12.064  1.00 20.00    +0.049 H 
ATOM     86 H86  LIG A   1      18.225  15.295  12.711  1.00 20.00    +0.049 H 
ATOM     87 H87  LIG A   1      17.281  15.852  10.621  1.00 20.00    +0.160 HD
ATOM     88 H88  LIG A   1      19.446  12.885  10.140  1.00 20.00    +0.064 H 
ATOM     89 H89  LIG A   1      19.488  11.620   8.074  1.00 20.00    +0.063 H 
ATOM     90 H90  LIG A   1      19.561  10.489   5.880  1.00 20.00    +0.066 H 
ATOM     91 H91  LIG A   1      18.535   9.796   3.464  1.00 20.00    +0.066 H 
ATOM     92 H92  LIG A   1      16.751   9.767   1.741  1.00 20.00    +0.063 H 
ATOM     93 H93  LIG A   1      15.113   9.967  -0.030  1.00 20.00    +0.064 H 
ATOM     94 H94  LIG A   1      12.819  12.859  -0.304  1.00 20.00    +0.160 HD
ATOM     95 H95  LIG A   1      12.736  11.840  -2.263  1.00 20.00    +0.049 H 
ATOM     96 H96  LIG A   1      14.207  10.994  -1.853  1.00 20.00    +0.049 H 
ATOM     97 H97  LIG A   1      12.537   9.303  -2.300  1.00 20.00    +0.030 H 
ATOM     98 H98  LIG A   1      12.788   9.285  -0.559  1.00 20.00    +0.030 H 
ATOM     99 H99  LIG A   1      10.431   9.149  -0.914  1.00 20.00    +0.043 H 
ATOM    100 H100 LIG A   1      10.763  10.757  -0.269  1.00 20.00    +0.043 H 
ATOM    101 H101 LIG A   1      10.297   9.999  -3.087  1.00 20.00    +0.122 HD
ATOM    102 H102 LIG A   1       8.360  11.149  -3.065  1.00 20.00    +0.043 H 
ATOM    103 H103 LIG A   1       8.332  10.206  -1.587  1.00 20.00    +0.043 H 
ATOM    104 H104 LIG A   1       9.086  12.234  -0.292  1.00 20.00    +0.028 H 
ATOM    105 H105 LIG A   1       7.587  12.490  -1.170  1.00 20.00    +0.028 H 
ATOM    106 H106 LIG A   1       8.843  13.661  -2.999  1.00 20.00    +0.028 H 
ATOM    107 H107 LIG A   1      10.357  13.375  -2.152  1.00 20.00    +0.028 H 
ATOM    108 H108 LIG A   1       9.572  14.748  -0.218  1.00 20.00    +0.043 H 
ATOM    109 H109 LIG A   1       9.690  15.641  -1.730  1.00 20.00    +0.043 H 
ATOM    110 H110 LIG A   1       7.312  15.327  -2.007  1.00 20.00    +0.118 HD
ATOM    111 H111 LIG A   1       7.213  14.602  -0.549  1.00 20.00    +0.118 HD
ATOM    112 H112 LIG A   1      13.509  13.495   1.835  1.00 20.00    +0.064 H 
ATOM    113 H113 LIG A   1      15.151  13.295   3.629  1.00 20.00    +0.063 H 
ATOM    114 H114 LIG A   1      16.290  14.048   6.514  1.00 20.00    +0.063 H 
ATOM    115 H115 LIG A   1      16.247  15.314   8.599  1.00 20.00    +0.064 H 
ENDROOT
TORSDOF 0
                                                                                                                      
ENDMDL
MODEL 8
REMARK VINA RESULT:   -10.089      3.565     13.372
REMARK INTER + INTRA:         -10.089
REMARK INTER:                 -10.089
REMARK INTRA:                   0.000
REMARK UNBOUND:                 0.000
ROOT
ATOM      1 C1   LIG A   1      22.841  23.351   8.062  1.00 20.00    -0.056 C 
ATOM      2 C2   LIG A   1      21.626  22.438   8.037  1.00 20.00    -0.002 C 
ATOM      3 S3   LIG A   1      20.176  23.238   8.784  1.00 20.00    -0.087 SA
ATOM      4 C4   LIG A   1      20.608  23.129  10.492  1.00 20.00    +0.205 C 
ATOM      5 O5   LIG A   1      21.460  22.343  10.899  1.00 20.00    -0.285 OA
ATOM      6 C6   LIG A   1      19.777  24.031  11.425  1.00 20.00    +0.074 C 
ATOM      7 N7   LIG A   1      18.852  23.189  12.218  1.00 20.00    -0.321 NA
ATOM      8 C8   LIG A   1      20.726  24.809  12.352  1.00 20.00    -0.028 C 
ATOM      9 C9   LIG A   1      20.129  26.086  12.954  1.00 20.00    -0.034 C 
ATOM     10 C10  LIG A   1      18.864  25.875  13.788  1.00 20.00    +0.018 C 
ATOM     11 N11  LIG A   1      18.530  27.089  14.525  1.00 20.00    -0.357 NA
ATOM     12 C12  LIG A   1      17.992  28.171  13.918  1.00 20.00    +0.185 C 
ATOM     13 N13  LIG A   1      17.604  28.225  12.698  1.00 20.00    -0.270 NA
ATOM     14 N14  LIG A   1      17.897  29.209  14.773  1.00 20.00    -0.370 NA
ATOM     15 N15  LIG A   1      23.568  14.882   3.170  1.00 20.00    -0.330 NA
ATOM     16 C16  LIG A   1      22.541  15.329   4.105  1.00 20.00    -0.008 C 
ATOM     17 C17  LIG A   1      22.429  16.854   4.108  1.00 20.00    -0.040 C 
ATOM     18 C18  LIG A   1      21.351  17.324   5.092  1.00 20.00    -0.039 C 
ATOM     19 C19  LIG A   1      21.152  18.842   5.083  1.00 20.00    -0.005 C 
ATOM     20 N20  LIG A   1      22.362  19.533   5.530  1.00 20.00    -0.317 NA
ATOM     21 C21  LIG A   1      22.198  20.987   5.462  1.00 20.00    -0.003 C 
ATOM     22 C22  LIG A   1      23.480  21.673   5.942  1.00 20.00    -0.023 C 
ATOM     23 C23  LIG A   1      23.440  23.188   5.742  1.00 20.00    +0.016 C 
ATOM     24 N24  LIG A   1      22.441  23.845   6.574  1.00 20.00    -0.385 NA
ATOM     25 C25  LIG A   1      22.593  24.057   7.938  1.00 20.00    +0.034 A 
ATOM     26 C26  LIG A   1      23.806  23.937   8.619  1.00 20.00    -0.038 A 
ATOM     27 C27  LIG A   1      23.916  24.252   9.983  1.00 20.00    -0.049 A 
ATOM     28 C28  LIG A   1      22.814  24.720  10.707  1.00 20.00    +0.017 A 
ATOM     29 C29  LIG A   1      22.942  25.072  12.120  1.00 20.00    +0.134 A 
ATOM     30 C30  LIG A   1      23.953  24.976  13.055  1.00 20.00    -0.015 A 
ATOM     31 C31  LIG A   1      23.449  25.525  14.261  1.00 20.00    -0.015 A 
ATOM     32 C32  LIG A   1      22.153  25.925  14.005  1.00 20.00    +0.134 A 
ATOM     33 C33  LIG A   1      21.102  26.564  14.794  1.00 20.00    +0.017 A 
ATOM     34 C34  LIG A   1      21.363  27.044  16.083  1.00 20.00    -0.049 A 
ATOM     35 C35  LIG A   1      20.358  27.666  16.841  1.00 20.00    -0.038 A 
ATOM     36 C36  LIG A   1      19.057  27.804  16.352  1.00 20.00    +0.034 A 
ATOM     37 N37  LIG A   1      18.040  28.469  17.024  1.00 20.00    -0.385 NA
ATOM     38 C38  LIG A   1      18.095  28.797  18.443  1.00 20.00    +0.016 C 
ATOM     39 C39  LIG A   1      18.662  30.201  18.662  1.00 20.00    -0.023 C 
ATOM     40 C40  LIG A   1      17.754  31.312  18.125  1.00 20.00    -0.003 C 
ATOM     41 N41  LIG A   1      16.525  31.419  18.922  1.00 20.00    -0.317 NA
ATOM     42 C42  LIG A   1      15.579  32.382  18.352  1.00 20.00    -0.005 C 
ATOM     43 C43  LIG A   1      14.809  31.846  17.137  1.00 20.00    -0.039 C 
ATOM     44 C44  LIG A   1      13.991  30.590  17.461  1.00 20.00    -0.040 C 
ATOM     45 C45  LIG A   1      13.233  30.024  16.256  1.00 20.00    -0.008 C 
ATOM     46 N46  LIG A   1      12.189  30.916  15.764  1.00 20.00    -0.330 NA
ATOM     47 C47  LIG A   1      18.809  27.346  15.052  1.00 20.00    -0.038 A 
ATOM     48 C48  LIG A   1      19.809  26.728  14.288  1.00 20.00    -0.049 A 
ATOM     49 O49  LIG A   1      21.847  25.643  12.704  1.00 20.00    -0.456 OA
ATOM     50 C50  LIG A   1      21.601  24.861  10.027  1.00 20.00    -0.049 A 
ATOM     51 C51  LIG A   1      21.499  24.545   8.664  1.00 20.00    -0.038 A 
ATOM     52 H52  LIG A   1      23.685  22.860   7.568  1.00 20.00    +0.024 H 
ATOM     53 H53  LIG A   1      22.648  24.291   7.534  1.00 20.00    +0.024 H 
ATOM     54 H54  LIG A   1      23.153  23.586   9.085  1.00 20.00    +0.024 H 
ATOM     55 H55  LIG A   1      21.374  22.206   6.997  1.00 20.00    +0.038 H 
ATOM     56 H56  LIG A   1      21.842  21.486   8.535  1.00 20.00    +0.038 H 
ATOM     57 H57  LIG A   1      19.191  24.742  10.832  1.00 20.00    +0.055 H 
ATOM     58 H58  LIG A   1      18.205  22.720  11.579  1.00 20.00    +0.119 HD
ATOM     59 H59  LIG A   1      19.391  22.442  12.661  1.00 20.00    +0.119 HD
ATOM     60 H60  LIG A   1      21.089  24.160  13.161  1.00 20.00    +0.029 H 
ATOM     61 H61  LIG A   1      21.621  25.103  11.787  1.00 20.00    +0.029 H 
ATOM     62 H62  LIG A   1      20.901  26.554  13.580  1.00 20.00    +0.029 H 
ATOM     63 H63  LIG A   1      19.923  26.796  12.143  1.00 20.00    +0.029 H 
ATOM     64 H64  LIG A   1      19.031  25.076  14.520  1.00 20.00    +0.049 H 
ATOM     65 H65  LIG A   1      18.015  25.577  13.163  1.00 20.00    +0.049 H 
ATOM     66 H66  LIG A   1      19.223  27.328  15.224  1.00 20.00    +0.163 HD
ATOM     67 H67  LIG A   1      17.255  29.160  12.489  1.00 20.00    +0.191 HD
ATOM     68 H68  LIG A   1      17.289  29.954  14.458  1.00 20.00    +0.159 HD
ATOM     69 H69  LIG A   1      17.634  28.910  15.705  1.00 20.00    +0.159 HD
ATOM     70 H70  LIG A   1      23.357  15.233   2.236  1.00 20.00    +0.118 HD
ATOM     71 H71  LIG A   1      24.463  15.301   3.427  1.00 20.00    +0.118 HD
ATOM     72 H72  LIG A   1      22.788  14.965   5.109  1.00 20.00    +0.043 H 
ATOM     73 H73  LIG A   1      21.584  14.878   3.822  1.00 20.00    +0.043 H 
ATOM     74 H74  LIG A   1      22.183  17.210   3.099  1.00 20.00    +0.028 H 
ATOM     75 H75  LIG A   1      23.399  17.290   4.377  1.00 20.00    +0.028 H 
ATOM     76 H76  LIG A   1      20.395  16.850   4.834  1.00 20.00    +0.028 H 
ATOM     77 H77  LIG A   1      21.603  16.988   6.106  1.00 20.00    +0.028 H 
ATOM     78 H78  LIG A   1      20.315  19.091   5.743  1.00 20.00    +0.043 H 
ATOM     79 H79  LIG A   1      20.885  19.160   4.068  1.00 20.00    +0.043 H 
ATOM     80 H80  LIG A   1      22.572  19.260   6.491  1.00 20.00    +0.122 HD
ATOM     81 H81  LIG A   1      21.352  21.301   6.083  1.00 20.00    +0.043 H 
ATOM     82 H82  LIG A   1      21.992  21.286   4.426  1.00 20.00    +0.043 H 
ATOM     83 H83  LIG A   1      23.662  21.427   6.995  1.00 20.00    +0.030 H 
ATOM     84 H84  LIG A   1      24.333  21.281   5.374  1.00 20.00    +0.030 H 
ATOM     85 H85  LIG A   1      24.432  23.620   5.913  1.00 20.00    +0.049 H 
ATOM     86 H86  LIG A   1      23.204  23.410   4.694  1.00 20.00    +0.049 H 
ATOM     87 H87  LIG A   1      21.480  23.701   6.280  1.00 20.00    +0.160 HD
ATOM     88 H88  LIG A   1      24.703  23.605   8.104  1.00 20.00    +0.064 H 
ATOM     89 H89  LIG A   1      24.887  24.141  10.460  1.00 20.00    +0.063 H 
ATOM     90 H90  LIG A   1      24.940  24.566  12.892  1.00 20.00    +0.066 H 
ATOM     91 H91  LIG A   1      23.974  25.618  15.200  1.00 20.00    +0.066 H 
ATOM     92 H92  LIG A   1      22.355  26.959  16.517  1.00 20.00    +0.063 H 
ATOM     93 H93  LIG A   1      20.629  28.045  17.821  1.00 20.00    +0.064 H 
ATOM     94 H94  LIG A   1      17.106  28.233  16.699  1.00 20.00    +0.160 HD
ATOM     95 H95  LIG A   1      17.078  28.738  18.850  1.00 20.00    +0.049 H 
ATOM     96 H96  LIG A   1      18.678  28.055  19.001  1.00 20.00    +0.049 H 
ATOM     97 H97  LIG A   1      18.833  30.354  19.736  1.00 20.00    +0.030 H 
ATOM     98 H98  LIG A   1      19.640  30.292  18.175  1.00 20.00    +0.030 H 
ATOM     99 H99  LIG A   1      18.295  32.264  18.173  1.00 20.00    +0.043 H 
ATOM    100 H100 LIG A   1      17.531  31.119  17.070  1.00 20.00    +0.043 H 
ATOM    101 H101 LIG A   1      16.774  31.721  19.863  1.00 20.00    +0.122 HD
ATOM    102 H102 LIG A   1      14.852  32.640  19.131  1.00 20.00    +0.043 H 
ATOM    103 H103 LIG A   1      16.090  33.317  18.091  1.00 20.00    +0.043 H 
ATOM    104 H104 LIG A   1      15.495  31.635  16.309  1.00 20.00    +0.028 H 
ATOM    105 H105 LIG A   1      14.140  32.643  16.790  1.00 20.00    +0.028 H 
ATOM    106 H106 LIG A   1      13.285  30.809  18.272  1.00 20.00    +0.028 H 
ATOM    107 H107 LIG A   1      14.659  29.803  17.832  1.00 20.00    +0.028 H 
ATOM    108 H108 LIG A   1      13.931  29.800  15.442  1.00 20.00    +0.043 H 
ATOM    109 H109 LIG A   1      12.767  29.077  16.546  1.00 20.00    +0.043 H 
ATOM    110 H110 LIG A   1      11.572  31.174  16.532  1.00 20.00    +0.118 HD
ATOM    111 H111 LIG A   1      12.601  31.782  15.421  1.00 20.00    +0.118 HD
ATOM    112 H112 LIG A   1      17.823  27.466  14.612  1.00 20.00    +0.064 H 
ATOM    113 H113 LIG A   1      19.561  26.378  13.288  1.00 20.00    +0.063 H 
ATOM    114 H114 LIG A   1      20.720  25.235  10.543  1.00 20.00    +0.063 H 
ATOM    115 H115 LIG A   1      20.543  24.700   8.169  1.00 20.00    +0.064 H 
ENDROOT
TORSDOF 0
                                                                                                                      
ENDMDL
MODEL 9
REMARK VINA RESULT:    -9.647      3.811      4.524
REMARK INTER + INTRA:          -9.647
REMARK INTER:                  -9.647
REMARK INTRA:                   0.000
REMARK UNBOUND:                 0.000
ROOT
ATOM      1 C1   LIG A   1      21.154  23.992  12.349  1.00 20.00    -0.056 C 
ATOM      2 C2   LIG A   1      21.392  24.315  10.883  1.00 20.00    -0.002 C 
ATOM      3 S3   LIG A   1      20.492  23.172   9.795  1.00 20.00    -0.087 SA
ATOM      4 C4   LIG A   1      21.497  21.731   9.960  1.00 20.00    +0.205 C 
ATOM      5 O5   LIG A   1      22.650  21.786  10.382  1.00 20.00    -0.285 OA
ATOM      6 C6   LIG A   1      20.845  20.430   9.455  1.00 20.00    +0.074 C 
ATOM      7 N7   LIG A   1      21.499  20.016   8.193  1.00 20.00    -0.321 NA
ATOM      8 C8   LIG A   1      21.001  19.338  10.527  1.00 20.00    -0.028 C 
ATOM      9 C9   LIG A   1      19.996  18.186  10.420  1.00 20.00    -0.034 C 
ATOM     10 C10  LIG A   1      20.024  17.428   9.092  1.00 20.00    +0.018 C 
ATOM     11 N11  LIG A   1      19.232  16.206   9.186  1.00 20.00    -0.357 NA
ATOM     12 C12  LIG A   1      17.881  16.225   9.188  1.00 20.00    +0.185 C 
ATOM     13 N13  LIG A   1      17.149  17.258   8.989  1.00 20.00    -0.270 NA
ATOM     14 N14  LIG A   1      17.378  14.995   9.418  1.00 20.00    -0.370 NA
ATOM     15 N15  LIG A   1      26.137  32.162  10.204  1.00 20.00    -0.330 NA
ATOM     16 C16  LIG A   1      25.773  31.043   9.342  1.00 20.00    -0.008 C 
ATOM     17 C17  LIG A   1      24.500  30.358   9.841  1.00 20.00    -0.040 C 
ATOM     18 C18  LIG A   1      24.119  29.181   8.935  1.00 20.00    -0.039 C 
ATOM     19 C19  LIG A   1      22.812  28.502   9.354  1.00 20.00    -0.005 C 
ATOM     20 N20  LIG A   1      22.935  27.899  10.682  1.00 20.00    -0.317 NA
ATOM     21 C21  LIG A   1      21.667  27.305  11.114  1.00 20.00    -0.003 C 
ATOM     22 C22  LIG A   1      21.838  26.680  12.501  1.00 20.00    -0.023 C 
ATOM     23 C23  LIG A   1      20.513  26.187  13.084  1.00 20.00    +0.016 C 
ATOM     24 N24  LIG A   1      19.947  25.070  12.342  1.00 20.00    -0.385 NA
ATOM     25 C25  LIG A   1      20.431  23.770  12.415  1.00 20.00    +0.034 A 
ATOM     26 C26  LIG A   1      21.311  23.317  13.400  1.00 20.00    -0.038 A 
ATOM     27 C27  LIG A   1      21.696  21.969  13.476  1.00 20.00    -0.049 A 
ATOM     28 C28  LIG A   1      21.193  21.022  12.577  1.00 20.00    +0.017 A 
ATOM     29 C29  LIG A   1      21.577  19.616  12.678  1.00 20.00    +0.134 A 
ATOM     30 C30  LIG A   1      22.466  18.908  13.461  1.00 20.00    -0.015 A 
ATOM     31 C31  LIG A   1      22.348  17.546  13.086  1.00 20.00    -0.015 A 
ATOM     32 C32  LIG A   1      21.395  17.488  12.089  1.00 20.00    +0.134 A 
ATOM     33 C33  LIG A   1      20.803  16.414  11.297  1.00 20.00    +0.017 A 
ATOM     34 C34  LIG A   1      21.082  15.072  11.583  1.00 20.00    -0.049 A 
ATOM     35 C35  LIG A   1      20.509  14.037  10.829  1.00 20.00    -0.038 A 
ATOM     36 C36  LIG A   1      19.664  14.302   9.749  1.00 20.00    +0.034 A 
ATOM     37 N37  LIG A   1      19.013  13.323   9.011  1.00 20.00    -0.385 NA
ATOM     38 C38  LIG A   1      19.389  11.915   9.036  1.00 20.00    +0.016 C 
ATOM     39 C39  LIG A   1      18.580  11.147  10.084  1.00 20.00    -0.023 C 
ATOM     40 C40  LIG A   1      17.088  11.060   9.751  1.00 20.00    -0.003 C 
ATOM     41 N41  LIG A   1      16.857  10.198   8.586  1.00 20.00    -0.317 NA
ATOM     42 C42  LIG A   1      15.453  10.202   8.164  1.00 20.00    -0.005 C 
ATOM     43 C43  LIG A   1      15.047  11.459   7.383  1.00 20.00    -0.039 C 
ATOM     44 C44  LIG A   1      15.873  11.655   6.106  1.00 20.00    -0.040 C 
ATOM     45 C45  LIG A   1      15.500  12.918   5.323  1.00 20.00    -0.008 C 
ATOM     46 N46  LIG A   1      14.149  12.876   4.775  1.00 20.00    -0.330 NA
ATOM     47 C47  LIG A   1      19.367  15.645   9.485  1.00 20.00    -0.038 A 
ATOM     48 C48  LIG A   1      19.932  16.684  10.237  1.00 20.00    -0.049 A 
ATOM     49 O49  LIG A   1      20.932  18.750  11.840  1.00 20.00    -0.456 OA
ATOM     50 C50  LIG A   1      20.297  21.467  11.600  1.00 20.00    -0.049 A 
ATOM     51 C51  LIG A   1      19.916  22.815  11.530  1.00 20.00    -0.038 A 
ATOM     52 H52  LIG A   1      21.672  24.721  12.979  1.00 20.00    +0.024 H 
ATOM     53 H53  LIG A   1      20.089  24.033  12.601  1.00 20.00    +0.024 H 
ATOM     54 H54  LIG A   1      21.535  23.001  12.615  1.00 20.00    +0.024 H 
ATOM     55 H55  LIG A   1      21.024  25.325  10.675  1.00 20.00    +0.038 H 
ATOM     56 H56  LIG A   1      22.463  24.309  10.650  1.00 20.00    +0.038 H 
ATOM     57 H57  LIG A   1      19.778  20.597   9.266  1.00 20.00    +0.055 H 
ATOM     58 H58  LIG A   1      21.339  20.739   7.487  1.00 20.00    +0.119 HD
ATOM     59 H59  LIG A   1      22.510  19.995   8.342  1.00 20.00    +0.119 HD
ATOM     60 H60  LIG A   1      22.023  18.933  10.514  1.00 20.00    +0.029 H 
ATOM     61 H61  LIG A   1      20.877  19.789  11.521  1.00 20.00    +0.029 H 
ATOM     62 H62  LIG A   1      20.201  17.486  11.241  1.00 20.00    +0.029 H 
ATOM     63 H63  LIG A   1      18.987  18.580  10.601  1.00 20.00    +0.029 H 
ATOM     64 H64  LIG A   1      21.053  17.141   8.849  1.00 20.00    +0.049 H 
ATOM     65 H65  LIG A   1      19.651  18.047   8.268  1.00 20.00    +0.049 H 
ATOM     66 H66  LIG A   1      19.622  15.534   9.836  1.00 20.00    +0.163 HD
ATOM     67 H67  LIG A   1      16.165  17.003   9.061  1.00 20.00    +0.191 HD
ATOM     68 H68  LIG A   1      16.397  14.897   9.192  1.00 20.00    +0.159 HD
ATOM     69 H69  LIG A   1      17.920  14.272   8.958  1.00 20.00    +0.159 HD
ATOM     70 H70  LIG A   1      25.362  32.824  10.252  1.00 20.00    +0.118 HD
ATOM     71 H71  LIG A   1      26.270  31.823  11.158  1.00 20.00    +0.118 HD
ATOM     72 H72  LIG A   1      26.603  30.328   9.314  1.00 20.00    +0.043 H 
ATOM     73 H73  LIG A   1      25.629  31.415   8.322  1.00 20.00    +0.043 H 
ATOM     74 H74  LIG A   1      23.675  31.081   9.867  1.00 20.00    +0.028 H 
ATOM     75 H75  LIG A   1      24.655  30.007  10.869  1.00 20.00    +0.028 H 
ATOM     76 H76  LIG A   1      24.006  29.540   7.904  1.00 20.00    +0.028 H 
ATOM     77 H77  LIG A   1      24.933  28.444   8.923  1.00 20.00    +0.028 H 
ATOM     78 H78  LIG A   1      22.564  27.732   8.616  1.00 20.00    +0.043 H 
ATOM     79 H79  LIG A   1      22.006  29.246   9.346  1.00 20.00    +0.043 H 
ATOM     80 H80  LIG A   1      23.658  27.179  10.661  1.00 20.00    +0.122 HD
ATOM     81 H81  LIG A   1      21.346  26.540  10.398  1.00 20.00    +0.043 H 
ATOM     82 H82  LIG A   1      20.892  28.080  11.156  1.00 20.00    +0.043 H 
ATOM     83 H83  LIG A   1      22.568  25.864  12.455  1.00 20.00    +0.030 H 
ATOM     84 H84  LIG A   1      22.248  27.433  13.187  1.00 20.00    +0.030 H 
ATOM     85 H85  LIG A   1      20.637  25.927  14.142  1.00 20.00    +0.049 H 
ATOM     86 H86  LIG A   1      19.783  27.005  13.070  1.00 20.00    +0.049 H 
ATOM     87 H87  LIG A   1      19.549  25.315  11.440  1.00 20.00    +0.160 HD
ATOM     88 H88  LIG A   1      21.713  23.999  14.143  1.00 20.00    +0.064 H 
ATOM     89 H89  LIG A   1      22.382  21.674  14.266  1.00 20.00    +0.063 H 
ATOM     90 H90  LIG A   1      23.121  19.318  14.218  1.00 20.00    +0.066 H 
ATOM     91 H91  LIG A   1      22.893  16.710  13.500  1.00 20.00    +0.066 H 
ATOM     92 H92  LIG A   1      21.738  14.806  12.408  1.00 20.00    +0.063 H 
ATOM     93 H93  LIG A   1      20.739  13.016  11.119  1.00 20.00    +0.064 H 
ATOM     94 H94  LIG A   1      18.688  13.639   8.101  1.00 20.00    +0.160 HD
ATOM     95 H95  LIG A   1      19.208  11.492   8.040  1.00 20.00    +0.049 H 
ATOM     96 H96  LIG A   1      20.464  11.793   9.215  1.00 20.00    +0.049 H 
ATOM     97 H97  LIG A   1      18.994  10.135  10.182  1.00 20.00    +0.030 H 
ATOM     98 H98  LIG A   1      18.687  11.625  11.064  1.00 20.00    +0.030 H 
ATOM     99 H99  LIG A   1      16.558  10.643  10.616  1.00 20.00    +0.043 H 
ATOM    100 H100 LIG A   1      16.694  12.069   9.587  1.00 20.00    +0.043 H 
ATOM    101 H101 LIG A   1      17.123   9.245   8.829  1.00 20.00    +0.122 HD
ATOM    102 H102 LIG A   1      15.293   9.331   7.518  1.00 20.00    +0.043 H 
ATOM    103 H103 LIG A   1      14.791  10.066   9.028  1.00 20.00    +0.043 H 
ATOM    104 H104 LIG A   1      15.130  12.350   8.016  1.00 20.00    +0.028 H 
ATOM    105 H105 LIG A   1      13.985  11.360   7.125  1.00 20.00    +0.028 H 
ATOM    106 H106 LIG A   1      15.768  10.775   5.460  1.00 20.00    +0.028 H 
ATOM    107 H107 LIG A   1      16.936  11.727   6.364  1.00 20.00    +0.028 H 
ATOM    108 H108 LIG A   1      15.605  13.803   5.959  1.00 20.00    +0.043 H 
ATOM    109 H109 LIG A   1      16.203  13.037   4.491  1.00 20.00    +0.043 H 
ATOM    110 H110 LIG A   1      14.028  12.024   4.230  1.00 20.00    +0.118 HD
ATOM    111 H111 LIG A   1      13.467  12.835   5.530  1.00 20.00    +0.118 HD
ATOM    112 H112 LIG A   1      18.683  15.902   8.680  1.00 20.00    +0.064 H 
ATOM    113 H113 LIG A   1      19.679  17.711   9.981  1.00 20.00    +0.063 H 
ATOM    114 H114 LIG A   1      19.868  20.766  10.887  1.00 20.00    +0.063 H 
ATOM    115 H115 LIG A   1      19.193  23.107  10.773  1.00 20.00    +0.064 H 
ENDROOT
TORSDOF 0
                                                                                                                      
ENDMDL
