MODEL 1
REMARK VINA RESULT:   -10.444      0.000      0.000
REMARK INTER + INTRA:         -10.444
REMARK INTER:                 -10.444
REMARK INTRA:                   0.000
REMARK UNBOUND:                 0.000
ROOT
ATOM      1 N1   LIG A   1       5.383  11.076  -5.261  1.00 20.00    -0.330 NA
ATOM      2 C2   LIG A   1       5.971  12.127  -4.437  1.00 20.00    -0.008 C 
ATOM      3 C3   LIG A   1       7.478  11.925  -4.283  1.00 20.00    -0.040 C 
ATOM      4 C4   LIG A   1       8.102  13.042  -3.440  1.00 20.00    -0.039 C 
ATOM      5 C5   LIG A   1       9.625  12.922  -3.328  1.00 20.00    -0.005 C 
ATOM      6 N6   LIG A   1      10.004  11.700  -2.616  1.00 20.00    -0.317 NA
ATOM      7 C7   LIG A   1      11.459  11.549  -2.560  1.00 20.00    -0.003 C 
ATOM      8 C8   LIG A   1      11.815  10.264  -1.811  1.00 20.00    -0.023 C 
ATOM      9 C9   LIG A   1      13.313   9.957  -1.855  1.00 20.00    +0.016 C 
ATOM     10 N10  LIG A   1      14.117  10.946  -1.149  1.00 20.00    -0.385 NA
ATOM     11 C11  LIG A   1      14.179  11.038   0.236  1.00 20.00    +0.034 A 
ATOM     12 C12  LIG A   1      13.736  10.039   1.106  1.00 20.00    -0.038 A 
ATOM     13 C13  LIG A   1      13.899  10.155   2.495  1.00 20.00    -0.049 A 
ATOM     14 C14  LIG A   1      14.538  11.264   3.060  1.00 20.00    +0.017 A 
ATOM     15 C15  LIG A   1      14.726  11.365   4.505  1.00 20.00    +0.134 A 
ATOM     16 C16  LIG A   1      14.351  10.593   5.585  1.00 20.00    -0.015 A 
ATOM     17 C17  LIG A   1      14.872  11.224   6.742  1.00 20.00    -0.015 A 
ATOM     18 C18  LIG A   1      15.541  12.354   6.312  1.00 20.00    +0.134 A 
ATOM     19 C19  LIG A   1      16.301  13.408   6.976  1.00 20.00    +0.017 A 
ATOM     20 C20  LIG A   1      16.614  13.317   8.338  1.00 20.00    -0.049 A 
ATOM     21 C21  LIG A   1      17.359  14.318   8.979  1.00 20.00    -0.038 A 
ATOM     22 C22  LIG A   1      17.788  15.458   8.294  1.00 20.00    +0.034 A 
ATOM     23 N23  LIG A   1      18.591  16.446   8.850  1.00 20.00    -0.385 NA
ATOM     24 C24  LIG A   1      18.805  16.585  10.288  1.00 20.00    +0.016 C 
ATOM     25 C25  LIG A   1      20.036  15.796  10.742  1.00 20.00    -0.023 C 
ATOM     26 C26  LIG A   1      21.351  16.356  10.190  1.00 20.00    -0.003 C 
ATOM     27 N27  LIG A   1      21.655  17.664  10.785  1.00 20.00    -0.317 NA
ATOM     28 C28  LIG A   1      22.827  18.295  10.175  1.00 20.00    -0.005 C 
ATOM     29 C29  LIG A   1      22.578  18.857   8.769  1.00 20.00    -0.039 C 
ATOM     30 C30  LIG A   1      21.453  19.899   8.737  1.00 20.00    -0.040 C 
ATOM     31 C31  LIG A   1      21.155  20.433   7.333  1.00 20.00    -0.008 C 
ATOM     32 N32  LIG A   1      22.265  21.181   6.754  1.00 20.00    -0.330 NA
ATOM     33 C33  LIG A   1      17.496  15.530   6.926  1.00 20.00    -0.038 A 
ATOM     34 C34  LIG A   1      16.757  14.531   6.278  1.00 20.00    -0.049 A 
ATOM     35 O35  LIG A   1      15.442  12.442   4.952  1.00 20.00    -0.456 OA
ATOM     36 C36  LIG A   1      15.009  12.255   2.190  1.00 20.00    -0.049 A 
ATOM     37 C37  LIG A   1      14.839  12.134   0.804  1.00 20.00    -0.038 A 
ATOM     38 O38  LIG A   1      17.563  14.958   3.785  1.00 20.00    -0.504 OA
ATOM     39 C39  LIG A   1      16.340  14.353   3.678  1.00 20.00    +0.157 A 
ATOM     40 C40  LIG A   1      16.105  13.329   2.768  1.00 20.00    -0.016 A 
ATOM     41 C41  LIG A   1      14.834  12.751   2.708  1.00 20.00    -0.058 A 
ATOM     42 C42  LIG A   1      13.813  13.200   3.554  1.00 20.00    -0.058 A 
ATOM     43 C43  LIG A   1      14.058  14.228   4.465  1.00 20.00    -0.016 A 
ATOM     44 C44  LIG A   1      15.323  14.797   4.519  1.00 20.00    +0.157 A 
ATOM     45 O45  LIG A   1      15.564  15.803   5.409  1.00 20.00    -0.504 OA
ATOM     46 H46  LIG A   1       5.846  11.059  -6.169  1.00 20.00    +0.118 HD
ATOM     47 H47  LIG A   1       5.577  10.168  -4.838  1.00 20.00    +0.118 HD
ATOM     48 H48  LIG A   1       5.485  12.122  -3.457  1.00 20.00    +0.043 H 
ATOM     49 H49  LIG A   1       5.763  13.097  -4.901  1.00 20.00    +0.043 H 
ATOM     50 H50  LIG A   1       7.953  11.907  -5.273  1.00 20.00    +0.028 H 
ATOM     51 H51  LIG A   1       7.669  10.951  -3.816  1.00 20.00    +0.028 H 
ATOM     52 H52  LIG A   1       7.867  14.011  -3.898  1.00 20.00    +0.028 H 
ATOM     53 H53  LIG A   1       7.652  13.048  -2.439  1.00 20.00    +0.028 H 
ATOM     54 H54  LIG A   1      10.008  13.799  -2.794  1.00 20.00    +0.043 H 
ATOM     55 H55  LIG A   1      10.060  12.925  -4.334  1.00 20.00    +0.043 H 
ATOM     56 H56  LIG A   1       9.628  11.731  -1.667  1.00 20.00    +0.122 HD
ATOM     57 H57  LIG A   1      11.907  12.413  -2.053  1.00 20.00    +0.043 H 
ATOM     58 H58  LIG A   1      11.865  11.502  -3.578  1.00 20.00    +0.043 H 
ATOM     59 H59  LIG A   1      11.463  10.328  -0.775  1.00 20.00    +0.030 H 
ATOM     60 H60  LIG A   1      11.286   9.420  -2.274  1.00 20.00    +0.030 H 
ATOM     61 H61  LIG A   1      13.506   8.952  -1.466  1.00 20.00    +0.049 H 
ATOM     62 H62  LIG A   1      13.646   9.937  -2.900  1.00 20.00    +0.049 H 
ATOM     63 H63  LIG A   1      14.198  11.842  -1.622  1.00 20.00    +0.160 HD
ATOM     64 H64  LIG A   1      13.257   9.142   0.729  1.00 20.00    +0.064 H 
ATOM     65 H65  LIG A   1      13.528   9.349   3.125  1.00 20.00    +0.063 H 
ATOM     66 H66  LIG A   1      13.776   9.679   5.550  1.00 20.00    +0.066 H 
ATOM     67 H67  LIG A   1      14.775  10.888   7.763  1.00 20.00    +0.066 H 
ATOM     68 H68  LIG A   1      16.299  12.456   8.923  1.00 20.00    +0.063 H 
ATOM     69 H69  LIG A   1      17.594  14.176  10.028  1.00 20.00    +0.064 H 
ATOM     70 H70  LIG A   1      18.515  17.340   8.371  1.00 20.00    +0.160 HD
ATOM     71 H71  LIG A   1      18.940  17.649  10.516  1.00 20.00    +0.049 H 
ATOM     72 H72  LIG A   1      17.919  16.274  10.852  1.00 20.00    +0.049 H 
ATOM     73 H73  LIG A   1      20.072  15.791  11.839  1.00 20.00    +0.030 H 
ATOM     74 H74  LIG A   1      19.950  14.749  10.430  1.00 20.00    +0.030 H 
ATOM     75 H75  LIG A   1      22.161  15.657  10.427  1.00 20.00    +0.043 H 
ATOM     76 H76  LIG A   1      21.284  16.417   9.100  1.00 20.00    +0.043 H 
ATOM     77 H77  LIG A   1      21.839  17.530  11.780  1.00 20.00    +0.122 HD
ATOM     78 H78  LIG A   1      23.134  19.125  10.823  1.00 20.00    +0.043 H 
ATOM     79 H79  LIG A   1      23.672  17.595  10.152  1.00 20.00    +0.043 H 
ATOM     80 H80  LIG A   1      22.353  18.048   8.065  1.00 20.00    +0.028 H 
ATOM     81 H81  LIG A   1      23.514  19.314   8.424  1.00 20.00    +0.028 H 
ATOM     82 H82  LIG A   1      21.706  20.733   9.404  1.00 20.00    +0.028 H 
ATOM     83 H83  LIG A   1      20.529  19.456   9.125  1.00 20.00    +0.028 H 
ATOM     84 H84  LIG A   1      20.888  19.608   6.663  1.00 20.00    +0.043 H 
ATOM     85 H85  LIG A   1      20.284  21.096   7.383  1.00 20.00    +0.043 H 
ATOM     86 H86  LIG A   1      22.572  21.898   7.409  1.00 20.00    +0.118 HD
ATOM     87 H87  LIG A   1      23.062  20.563   6.612  1.00 20.00    +0.118 HD
ATOM     88 H88  LIG A   1      17.850  16.374   6.340  1.00 20.00    +0.064 H 
ATOM     89 H89  LIG A   1      16.551  14.640   5.216  1.00 20.00    +0.063 H 
ATOM     90 H90  LIG A   1      15.528  13.127   2.578  1.00 20.00    +0.063 H 
ATOM     91 H91  LIG A   1      15.246  12.915   0.166  1.00 20.00    +0.064 H 
ATOM     92 H92  LIG A   1      18.162  14.537   3.144  1.00 20.00    +0.293 HD
ATOM     93 H93  LIG A   1      16.885  12.970   2.104  1.00 20.00    +0.066 H 
ATOM     94 H94  LIG A   1      14.635  11.949   2.001  1.00 20.00    +0.062 H 
ATOM     95 H95  LIG A   1      12.827  12.747   3.503  1.00 20.00    +0.062 H 
ATOM     96 H96  LIG A   1      13.272  14.583   5.124  1.00 20.00    +0.066 H 
ATOM     97 H97  LIG A   1      16.503  16.035   5.264  1.00 20.00    +0.293 HD
ENDROOT
TORSDOF 0
                                                                                                    
ENDMDL
MODEL 2
REMARK VINA RESULT:   -10.432      9.582     15.704
REMARK INTER + INTRA:         -10.432
REMARK INTER:                 -10.432
REMARK INTRA:                   0.000
REMARK UNBOUND:                 0.000
ROOT
ATOM      1 N1   LIG A   1      22.578  12.149   5.528  1.00 20.00    -0.330 NA
ATOM      2 C2   LIG A   1      21.913  12.702   6.702  1.00 20.00    -0.008 C 
ATOM      3 C3   LIG A   1      21.384  14.108   6.422  1.00 20.00    -0.040 C 
ATOM      4 C4   LIG A   1      20.661  14.681   7.645  1.00 20.00    -0.039 C 
ATOM      5 C5   LIG A   1      20.045  16.059   7.381  1.00 20.00    -0.005 C 
ATOM      6 N6   LIG A   1      21.082  17.052   7.097  1.00 20.00    -0.317 NA
ATOM      7 C7   LIG A   1      20.495  18.356   6.783  1.00 20.00    -0.003 C 
ATOM      8 C8   LIG A   1      21.608  19.365   6.491  1.00 20.00    -0.023 C 
ATOM      9 C9   LIG A   1      21.065  20.706   5.997  1.00 20.00    +0.016 C 
ATOM     10 N10  LIG A   1      20.281  21.409   7.004  1.00 20.00    -0.385 NA
ATOM     11 C11  LIG A   1      20.840  22.044   8.106  1.00 20.00    +0.034 A 
ATOM     12 C12  LIG A   1      22.199  22.345   8.230  1.00 20.00    -0.038 A 
ATOM     13 C13  LIG A   1      22.693  23.060   9.332  1.00 20.00    -0.049 A 
ATOM     14 C14  LIG A   1      21.836  23.525  10.336  1.00 20.00    +0.017 A 
ATOM     15 C15  LIG A   1      22.353  24.291  11.467  1.00 20.00    +0.134 A 
ATOM     16 C16  LIG A   1      23.613  24.674  11.880  1.00 20.00    -0.015 A 
ATOM     17 C17  LIG A   1      23.444  25.441  13.059  1.00 20.00    -0.015 A 
ATOM     18 C18  LIG A   1      22.086  25.487  13.311  1.00 20.00    +0.134 A 
ATOM     19 C19  LIG A   1      21.257  26.116  14.335  1.00 20.00    +0.017 A 
ATOM     20 C20  LIG A   1      21.813  27.007  15.260  1.00 20.00    -0.049 A 
ATOM     21 C21  LIG A   1      21.019  27.628  16.237  1.00 20.00    -0.038 A 
ATOM     22 C22  LIG A   1      19.652  27.357  16.344  1.00 20.00    +0.034 A 
ATOM     23 N23  LIG A   1      18.798  27.993  17.236  1.00 20.00    -0.385 NA
ATOM     24 C24  LIG A   1      19.273  28.766  18.381  1.00 20.00    +0.016 C 
ATOM     25 C25  LIG A   1      19.450  30.243  18.014  1.00 20.00    -0.023 C 
ATOM     26 C26  LIG A   1      18.127  30.951  17.703  1.00 20.00    -0.003 C 
ATOM     27 N27  LIG A   1      17.307  31.087  18.915  1.00 20.00    -0.317 NA
ATOM     28 C28  LIG A   1      15.977  31.630  18.628  1.00 20.00    -0.005 C 
ATOM     29 C29  LIG A   1      15.025  30.634  17.950  1.00 20.00    -0.039 C 
ATOM     30 C30  LIG A   1      14.812  29.360  18.776  1.00 20.00    -0.040 C 
ATOM     31 C31  LIG A   1      13.907  28.332  18.090  1.00 20.00    -0.008 C 
ATOM     32 N32  LIG A   1      12.537  28.800  17.912  1.00 20.00    -0.330 NA
ATOM     33 C33  LIG A   1      19.097  26.486  15.398  1.00 20.00    -0.038 A 
ATOM     34 C34  LIG A   1      19.883  25.867  14.417  1.00 20.00    -0.049 A 
ATOM     35 O35  LIG A   1      21.427  24.779  12.346  1.00 20.00    -0.456 OA
ATOM     36 C36  LIG A   1      20.470  23.252  10.202  1.00 20.00    -0.049 A 
ATOM     37 C37  LIG A   1      19.985  22.533   9.101  1.00 20.00    -0.038 A 
ATOM     38 O38  LIG A   1      17.991  25.329  12.634  1.00 20.00    -0.504 OA
ATOM     39 C39  LIG A   1      18.987  24.421  12.399  1.00 20.00    +0.157 A 
ATOM     40 C40  LIG A   1      19.418  24.121  11.112  1.00 20.00    -0.016 A 
ATOM     41 C41  LIG A   1      20.441  23.185  10.937  1.00 20.00    -0.058 A 
ATOM     42 C42  LIG A   1      21.023  22.560  12.045  1.00 20.00    -0.058 A 
ATOM     43 C43  LIG A   1      20.585  22.867  13.334  1.00 20.00    -0.016 A 
ATOM     44 C44  LIG A   1      19.569  23.797  13.500  1.00 20.00    +0.157 A 
ATOM     45 O45  LIG A   1      19.139  24.099  14.760  1.00 20.00    -0.504 OA
ATOM     46 H46  LIG A   1      21.930  12.147   4.741  1.00 20.00    +0.118 HD
ATOM     47 H47  LIG A   1      23.343  12.766   5.252  1.00 20.00    +0.118 HD
ATOM     48 H48  LIG A   1      22.622  12.723   7.535  1.00 20.00    +0.043 H 
ATOM     49 H49  LIG A   1      21.091  12.037   6.989  1.00 20.00    +0.043 H 
ATOM     50 H50  LIG A   1      20.691  14.081   5.570  1.00 20.00    +0.028 H 
ATOM     51 H51  LIG A   1      22.218  14.762   6.139  1.00 20.00    +0.028 H 
ATOM     52 H52  LIG A   1      19.856  13.996   7.940  1.00 20.00    +0.028 H 
ATOM     53 H53  LIG A   1      21.354  14.738   8.494  1.00 20.00    +0.028 H 
ATOM     54 H54  LIG A   1      19.469  16.362   8.264  1.00 20.00    +0.043 H 
ATOM     55 H55  LIG A   1      19.349  15.984   6.537  1.00 20.00    +0.043 H 
ATOM     56 H56  LIG A   1      21.696  17.141   7.908  1.00 20.00    +0.122 HD
ATOM     57 H57  LIG A   1      19.885  18.705   7.624  1.00 20.00    +0.043 H 
ATOM     58 H58  LIG A   1      19.845  18.266   5.904  1.00 20.00    +0.043 H 
ATOM     59 H59  LIG A   1      22.227  19.503   7.386  1.00 20.00    +0.030 H 
ATOM     60 H60  LIG A   1      22.265  18.960   5.711  1.00 20.00    +0.030 H 
ATOM     61 H61  LIG A   1      21.885  21.336   5.634  1.00 20.00    +0.049 H 
ATOM     62 H62  LIG A   1      20.420  20.535   5.127  1.00 20.00    +0.049 H 
ATOM     63 H63  LIG A   1      19.366  21.007   7.184  1.00 20.00    +0.160 HD
ATOM     64 H64  LIG A   1      22.911  22.034   7.472  1.00 20.00    +0.064 H 
ATOM     65 H65  LIG A   1      23.760  23.258   9.379  1.00 20.00    +0.063 H 
ATOM     66 H66  LIG A   1      24.547  24.439  11.389  1.00 20.00    +0.066 H 
ATOM     67 H67  LIG A   1      24.221  25.906  13.647  1.00 20.00    +0.066 H 
ATOM     68 H68  LIG A   1      22.873  27.250  15.229  1.00 20.00    +0.063 H 
ATOM     69 H69  LIG A   1      21.502  28.331  16.906  1.00 20.00    +0.064 H 
ATOM     70 H70  LIG A   1      17.959  27.456  17.440  1.00 20.00    +0.160 HD
ATOM     71 H71  LIG A   1      18.540  28.670  19.191  1.00 20.00    +0.049 H 
ATOM     72 H72  LIG A   1      20.207  28.354  18.778  1.00 20.00    +0.049 H 
ATOM     73 H73  LIG A   1      19.955  30.757  18.841  1.00 20.00    +0.030 H 
ATOM     74 H74  LIG A   1      20.105  30.339  17.142  1.00 20.00    +0.030 H 
ATOM     75 H75  LIG A   1      18.345  31.949  17.303  1.00 20.00    +0.043 H 
ATOM     76 H76  LIG A   1      17.600  30.397  16.922  1.00 20.00    +0.043 H 
ATOM     77 H77  LIG A   1      17.785  31.721  19.556  1.00 20.00    +0.122 HD
ATOM     78 H78  LIG A   1      15.528  31.931  19.582  1.00 20.00    +0.043 H 
ATOM     79 H79  LIG A   1      16.055  32.541  18.024  1.00 20.00    +0.043 H 
ATOM     80 H80  LIG A   1      15.392  30.371  16.952  1.00 20.00    +0.028 H 
ATOM     81 H81  LIG A   1      14.065  31.143  17.801  1.00 20.00    +0.028 H 
ATOM     82 H82  LIG A   1      14.396  29.624  19.757  1.00 20.00    +0.028 H 
ATOM     83 H83  LIG A   1      15.778  28.876  18.965  1.00 20.00    +0.028 H 
ATOM     84 H84  LIG A   1      14.322  28.053  17.116  1.00 20.00    +0.043 H 
ATOM     85 H85  LIG A   1      13.882  27.421  18.698  1.00 20.00    +0.043 H 
ATOM     86 H86  LIG A   1      12.174  29.139  18.802  1.00 20.00    +0.118 HD
ATOM     87 H87  LIG A   1      12.523  29.596  17.276  1.00 20.00    +0.118 HD
ATOM     88 H88  LIG A   1      18.029  26.281  15.410  1.00 20.00    +0.064 H 
ATOM     89 H89  LIG A   1      19.403  25.193  13.712  1.00 20.00    +0.063 H 
ATOM     90 H90  LIG A   1      19.761  23.607  10.946  1.00 20.00    +0.063 H 
ATOM     91 H91  LIG A   1      18.912  22.369   9.025  1.00 20.00    +0.064 H 
ATOM     92 H92  LIG A   1      17.695  25.678  11.777  1.00 20.00    +0.293 HD
ATOM     93 H93  LIG A   1      18.976  24.596  10.241  1.00 20.00    +0.066 H 
ATOM     94 H94  LIG A   1      20.788  22.940   9.936  1.00 20.00    +0.062 H 
ATOM     95 H95  LIG A   1      21.818  21.833  11.904  1.00 20.00    +0.062 H 
ATOM     96 H96  LIG A   1      21.030  22.386  14.200  1.00 20.00    +0.066 H 
ATOM     97 H97  LIG A   1      18.435  24.763  14.624  1.00 20.00    +0.293 HD
ENDROOT
TORSDOF 0
                                                                                                    
ENDMDL
MODEL 3
REMARK VINA RESULT:   -10.290      6.277     16.241
REMARK INTER + INTRA:         -10.290
REMARK INTER:                 -10.290
REMARK INTRA:                   0.000
REMARK UNBOUND:                 0.000
ROOT
ATOM      1 N1   LIG A   1      20.704  32.900  16.299  1.00 20.00    -0.330 NA
ATOM      2 C2   LIG A   1      20.043  32.180  15.216  1.00 20.00    -0.008 C 
ATOM      3 C3   LIG A   1      19.986  30.681  15.509  1.00 20.00    -0.040 C 
ATOM      4 C4   LIG A   1      19.269  29.925  14.386  1.00 20.00    -0.039 C 
ATOM      5 C5   LIG A   1      19.118  28.428  14.677  1.00 20.00    -0.005 C 
ATOM      6 N6   LIG A   1      20.426  27.775  14.753  1.00 20.00    -0.317 NA
ATOM      7 C7   LIG A   1      20.290  26.357  15.093  1.00 20.00    -0.003 C 
ATOM      8 C8   LIG A   1      21.674  25.709  15.164  1.00 20.00    -0.023 C 
ATOM      9 C9   LIG A   1      21.620  24.269  15.674  1.00 20.00    +0.016 C 
ATOM     10 N10  LIG A   1      20.917  23.370  14.767  1.00 20.00    -0.385 NA
ATOM     11 C11  LIG A   1      21.449  22.922  13.565  1.00 20.00    +0.034 A 
ATOM     12 C12  LIG A   1      22.799  23.024  13.221  1.00 20.00    -0.038 A 
ATOM     13 C13  LIG A   1      23.292  22.481  12.024  1.00 20.00    -0.049 A 
ATOM     14 C14  LIG A   1      22.453  21.790  11.143  1.00 20.00    +0.017 A 
ATOM     15 C15  LIG A   1      22.979  21.205   9.912  1.00 20.00    +0.134 A 
ATOM     16 C16  LIG A   1      24.213  21.199   9.294  1.00 20.00    -0.015 A 
ATOM     17 C17  LIG A   1      24.081  20.416   8.120  1.00 20.00    -0.015 A 
ATOM     18 C18  LIG A   1      22.770  19.982   8.077  1.00 20.00    +0.134 A 
ATOM     19 C19  LIG A   1      22.000  19.142   7.165  1.00 20.00    +0.017 A 
ATOM     20 C20  LIG A   1      22.630  18.448   6.125  1.00 20.00    -0.049 A 
ATOM     21 C21  LIG A   1      21.899  17.626   5.254  1.00 20.00    -0.038 A 
ATOM     22 C22  LIG A   1      20.513  17.494   5.370  1.00 20.00    +0.034 A 
ATOM     23 N23  LIG A   1      19.742  16.639   4.591  1.00 20.00    -0.385 NA
ATOM     24 C24  LIG A   1      20.227  16.035   3.353  1.00 20.00    +0.016 C 
ATOM     25 C25  LIG A   1      20.871  14.671   3.619  1.00 20.00    -0.023 C 
ATOM     26 C26  LIG A   1      19.871  13.613   4.096  1.00 20.00    -0.003 C 
ATOM     27 N27  LIG A   1      18.940  13.248   3.020  1.00 20.00    -0.317 NA
ATOM     28 C28  LIG A   1      17.881  12.347   3.481  1.00 20.00    -0.005 C 
ATOM     29 C29  LIG A   1      16.808  13.027   4.342  1.00 20.00    -0.039 C 
ATOM     30 C30  LIG A   1      16.113  14.188   3.618  1.00 20.00    -0.040 C 
ATOM     31 C31  LIG A   1      15.077  14.912   4.481  1.00 20.00    -0.008 C 
ATOM     32 N32  LIG A   1      13.942  14.071   4.845  1.00 20.00    -0.330 NA
ATOM     33 C33  LIG A   1      19.892  18.169   6.428  1.00 20.00    -0.038 A 
ATOM     34 C34  LIG A   1      20.617  18.987   7.305  1.00 20.00    -0.049 A 
ATOM     35 O35  LIG A   1      22.101  20.471   9.163  1.00 20.00    -0.456 OA
ATOM     36 C36  LIG A   1      21.105  21.660  11.496  1.00 20.00    -0.049 A 
ATOM     37 C37  LIG A   1      20.619  22.209  12.691  1.00 20.00    -0.038 A 
ATOM     38 O38  LIG A   1      18.960  18.960   9.380  1.00 20.00    -0.504 OA
ATOM     39 C39  LIG A   1      19.683  20.115   9.501  1.00 20.00    +0.157 A 
ATOM     40 C40  LIG A   1      20.211  20.525  10.720  1.00 20.00    -0.016 A 
ATOM     41 C41  LIG A   1      20.942  21.715  10.778  1.00 20.00    -0.058 A 
ATOM     42 C42  LIG A   1      21.138  22.482   9.624  1.00 20.00    -0.058 A 
ATOM     43 C43  LIG A   1      20.605  22.062   8.405  1.00 20.00    -0.016 A 
ATOM     44 C44  LIG A   1      19.881  20.880   8.354  1.00 20.00    +0.157 A 
ATOM     45 O45  LIG A   1      19.358  20.468   7.162  1.00 20.00    -0.504 OA
ATOM     46 H46  LIG A   1      20.216  32.716  17.175  1.00 20.00    +0.118 HD
ATOM     47 H47  LIG A   1      21.645  32.528  16.425  1.00 20.00    +0.118 HD
ATOM     48 H48  LIG A   1      20.587  32.364  14.284  1.00 20.00    +0.043 H 
ATOM     49 H49  LIG A   1      19.032  32.581  15.090  1.00 20.00    +0.043 H 
ATOM     50 H50  LIG A   1      19.459  30.508  16.458  1.00 20.00    +0.028 H 
ATOM     51 H51  LIG A   1      21.005  30.294  15.630  1.00 20.00    +0.028 H 
ATOM     52 H52  LIG A   1      18.267  30.350  14.249  1.00 20.00    +0.028 H 
ATOM     53 H53  LIG A   1      19.805  30.070  13.439  1.00 20.00    +0.028 H 
ATOM     54 H54  LIG A   1      18.519  27.973  13.880  1.00 20.00    +0.043 H 
ATOM     55 H55  LIG A   1      18.574  28.301  15.621  1.00 20.00    +0.043 H 
ATOM     56 H56  LIG A   1      20.902  27.865  13.854  1.00 20.00    +0.122 HD
ATOM     57 H57  LIG A   1      19.678  25.847  14.340  1.00 20.00    +0.043 H 
ATOM     58 H58  LIG A   1      19.791  26.256  16.065  1.00 20.00    +0.043 H 
ATOM     59 H59  LIG A   1      22.156  25.755  14.180  1.00 20.00    +0.030 H 
ATOM     60 H60  LIG A   1      22.306  26.286  15.853  1.00 20.00    +0.030 H 
ATOM     61 H61  LIG A   1      22.632  23.900  15.877  1.00 20.00    +0.049 H 
ATOM     62 H62  LIG A   1      21.101  24.247  16.639  1.00 20.00    +0.049 H 
ATOM     63 H63  LIG A   1      19.909  23.493  14.748  1.00 20.00    +0.160 HD
ATOM     64 H64  LIG A   1      23.506  23.526  13.874  1.00 20.00    +0.064 H 
ATOM     65 H65  LIG A   1      24.351  22.597  11.805  1.00 20.00    +0.063 H 
ATOM     66 H66  LIG A   1      25.107  21.692   9.646  1.00 20.00    +0.066 H 
ATOM     67 H67  LIG A   1      24.853  20.194   7.400  1.00 20.00    +0.066 H 
ATOM     68 H68  LIG A   1      23.706  18.520   5.982  1.00 20.00    +0.063 H 
ATOM     69 H69  LIG A   1      22.448  17.091   4.487  1.00 20.00    +0.064 H 
ATOM     70 H70  LIG A   1      18.764  16.914   4.543  1.00 20.00    +0.160 HD
ATOM     71 H71  LIG A   1      19.377  15.917   2.670  1.00 20.00    +0.049 H 
ATOM     72 H72  LIG A   1      20.930  16.698   2.836  1.00 20.00    +0.049 H 
ATOM     73 H73  LIG A   1      21.362  14.324   2.702  1.00 20.00    +0.030 H 
ATOM     74 H74  LIG A   1      21.657  14.767   4.376  1.00 20.00    +0.030 H 
ATOM     75 H75  LIG A   1      20.423  12.720   4.412  1.00 20.00    +0.043 H 
ATOM     76 H76  LIG A   1      19.340  13.993   4.974  1.00 20.00    +0.043 H 
ATOM     77 H77  LIG A   1      19.469  12.778   2.284  1.00 20.00    +0.122 HD
ATOM     78 H78  LIG A   1      17.390  11.929   2.594  1.00 20.00    +0.043 H 
ATOM     79 H79  LIG A   1      18.310  11.496   4.023  1.00 20.00    +0.043 H 
ATOM     80 H80  LIG A   1      17.240  13.385   5.283  1.00 20.00    +0.028 H 
ATOM     81 H81  LIG A   1      16.068  12.265   4.613  1.00 20.00    +0.028 H 
ATOM     82 H82  LIG A   1      15.638  13.816   2.701  1.00 20.00    +0.028 H 
ATOM     83 H83  LIG A   1      16.860  14.928   3.306  1.00 20.00    +0.028 H 
ATOM     84 H84  LIG A   1      15.546  15.299   5.392  1.00 20.00    +0.043 H 
ATOM     85 H85  LIG A   1      14.698  15.778   3.927  1.00 20.00    +0.043 H 
ATOM     86 H86  LIG A   1      13.552  13.642   4.007  1.00 20.00    +0.118 HD
ATOM     87 H87  LIG A   1      14.255  13.305   5.438  1.00 20.00    +0.118 HD
ATOM     88 H88  LIG A   1      18.823  18.059   6.590  1.00 20.00    +0.064 H 
ATOM     89 H89  LIG A   1      20.085  19.495   8.106  1.00 20.00    +0.063 H 
ATOM     90 H90  LIG A   1      20.417  21.116  10.854  1.00 20.00    +0.063 H 
ATOM     91 H91  LIG A   1      19.571  22.059  12.937  1.00 20.00    +0.064 H 
ATOM     92 H92  LIG A   1      18.917  18.540  10.255  1.00 20.00    +0.293 HD
ATOM     93 H93  LIG A   1      20.067  19.944  11.625  1.00 20.00    +0.066 H 
ATOM     94 H94  LIG A   1      21.361  22.049  11.725  1.00 20.00    +0.062 H 
ATOM     95 H95  LIG A   1      21.707  23.406   9.676  1.00 20.00    +0.062 H 
ATOM     96 H96  LIG A   1      20.751  22.651   7.505  1.00 20.00    +0.066 H 
ATOM     97 H97  LIG A   1      18.902  19.629   7.374  1.00 20.00    +0.293 HD
ENDROOT
TORSDOF 0
                                                                                                    
ENDMDL
MODEL 4
REMARK VINA RESULT:   -10.261      3.868      5.931
REMARK INTER + INTRA:         -10.261
REMARK INTER:                 -10.261
REMARK INTRA:                   0.000
REMARK UNBOUND:                 0.000
ROOT
ATOM      1 N1   LIG A   1       7.878   8.900   1.814  1.00 20.00    -0.330 NA
ATOM      2 C2   LIG A   1       8.187   9.799   2.921  1.00 20.00    -0.008 C 
ATOM      3 C3   LIG A   1       9.299  10.775   2.540  1.00 20.00    -0.040 C 
ATOM      4 C4   LIG A   1       9.608  11.738   3.691  1.00 20.00    -0.039 C 
ATOM      5 C5   LIG A   1      10.662  12.787   3.323  1.00 20.00    -0.005 C 
ATOM      6 N6   LIG A   1      11.954  12.157   3.044  1.00 20.00    -0.317 NA
ATOM      7 C7   LIG A   1      12.948  13.149   2.632  1.00 20.00    -0.003 C 
ATOM      8 C8   LIG A   1      14.282  12.455   2.348  1.00 20.00    -0.023 C 
ATOM      9 C9   LIG A   1      15.322  13.406   1.756  1.00 20.00    +0.016 C 
ATOM     10 N10  LIG A   1      15.724  14.457   2.681  1.00 20.00    -0.385 NA
ATOM     11 C11  LIG A   1      16.550  14.240   3.777  1.00 20.00    +0.034 A 
ATOM     12 C12  LIG A   1      17.324  13.091   3.958  1.00 20.00    -0.038 A 
ATOM     13 C13  LIG A   1      18.201  12.963   5.046  1.00 20.00    -0.049 A 
ATOM     14 C14  LIG A   1      18.355  13.997   5.977  1.00 20.00    +0.017 A 
ATOM     15 C15  LIG A   1      19.289  13.867   7.093  1.00 20.00    +0.134 A 
ATOM     16 C16  LIG A   1      20.112  12.859   7.552  1.00 20.00    -0.015 A 
ATOM     17 C17  LIG A   1      20.801  13.373   8.680  1.00 20.00    -0.015 A 
ATOM     18 C18  LIG A   1      20.361  14.671   8.856  1.00 20.00    +0.134 A 
ATOM     19 C19  LIG A   1      20.678  15.739   9.799  1.00 20.00    +0.017 A 
ATOM     20 C20  LIG A   1      21.737  15.604  10.706  1.00 20.00    -0.049 A 
ATOM     21 C21  LIG A   1      22.057  16.633  11.605  1.00 20.00    -0.038 A 
ATOM     22 C22  LIG A   1      21.315  17.815  11.652  1.00 20.00    +0.034 A 
ATOM     23 N23  LIG A   1      21.626  18.900  12.463  1.00 20.00    -0.385 NA
ATOM     24 C24  LIG A   1      22.551  18.813  13.590  1.00 20.00    +0.016 C 
ATOM     25 C25  LIG A   1      23.981  19.152  13.157  1.00 20.00    -0.023 C 
ATOM     26 C26  LIG A   1      24.155  20.616  12.739  1.00 20.00    -0.003 C 
ATOM     27 N27  LIG A   1      24.022  21.511  13.896  1.00 20.00    -0.317 NA
ATOM     28 C28  LIG A   1      24.039  22.924  13.511  1.00 20.00    -0.005 C 
ATOM     29 C29  LIG A   1      22.748  23.407  12.836  1.00 20.00    -0.039 C 
ATOM     30 C30  LIG A   1      21.506  23.206  13.714  1.00 20.00    -0.040 C 
ATOM     31 C31  LIG A   1      20.203  23.634  13.036  1.00 20.00    -0.008 C 
ATOM     32 N32  LIG A   1      20.139  25.065  12.760  1.00 20.00    -0.330 NA
ATOM     33 C33  LIG A   1      20.275  17.955  10.725  1.00 20.00    -0.038 A 
ATOM     34 C34  LIG A   1      19.953  16.934   9.821  1.00 20.00    -0.049 A 
ATOM     35 O35  LIG A   1      19.435  14.965   7.895  1.00 20.00    -0.456 OA
ATOM     36 C36  LIG A   1      17.603  15.161   5.785  1.00 20.00    -0.049 A 
ATOM     37 C37  LIG A   1      16.726  15.280   4.698  1.00 20.00    -0.038 A 
ATOM     38 O38  LIG A   1      18.716  18.381   7.970  1.00 20.00    -0.504 OA
ATOM     39 C39  LIG A   1      18.223  17.112   7.835  1.00 20.00    +0.157 A 
ATOM     40 C40  LIG A   1      18.061  16.515   6.591  1.00 20.00    -0.016 A 
ATOM     41 C41  LIG A   1      17.552  15.215   6.520  1.00 20.00    -0.058 A 
ATOM     42 C42  LIG A   1      17.211  14.525   7.689  1.00 20.00    -0.058 A 
ATOM     43 C43  LIG A   1      17.378  15.132   8.935  1.00 20.00    -0.016 A 
ATOM     44 C44  LIG A   1      17.883  16.422   8.997  1.00 20.00    +0.157 A 
ATOM     45 O45  LIG A   1      18.046  17.017  10.215  1.00 20.00    -0.504 OA
ATOM     46 H46  LIG A   1       7.619   9.449   0.995  1.00 20.00    +0.118 HD
ATOM     47 H47  LIG A   1       8.720   8.390   1.548  1.00 20.00    +0.118 HD
ATOM     48 H48  LIG A   1       8.487   9.203   3.788  1.00 20.00    +0.043 H 
ATOM     49 H49  LIG A   1       7.279  10.345   3.197  1.00 20.00    +0.043 H 
ATOM     50 H50  LIG A   1       8.999  11.352   1.654  1.00 20.00    +0.028 H 
ATOM     51 H51  LIG A   1      10.201  10.213   2.269  1.00 20.00    +0.028 H 
ATOM     52 H52  LIG A   1       8.688  12.262   3.978  1.00 20.00    +0.028 H 
ATOM     53 H53  LIG A   1       9.936  11.171   4.572  1.00 20.00    +0.028 H 
ATOM     54 H54  LIG A   1      10.763  13.492   4.157  1.00 20.00    +0.043 H 
ATOM     55 H55  LIG A   1      10.316  13.350   2.448  1.00 20.00    +0.043 H 
ATOM     56 H56  LIG A   1      12.283  11.673   3.881  1.00 20.00    +0.122 HD
ATOM     57 H57  LIG A   1      13.079  13.901   3.420  1.00 20.00    +0.043 H 
ATOM     58 H58  LIG A   1      12.605  13.662   1.724  1.00 20.00    +0.043 H 
ATOM     59 H59  LIG A   1      14.660  11.989   3.266  1.00 20.00    +0.030 H 
ATOM     60 H60  LIG A   1      14.118  11.644   1.626  1.00 20.00    +0.030 H 
ATOM     61 H61  LIG A   1      16.194  12.844   1.405  1.00 20.00    +0.049 H 
ATOM     62 H62  LIG A   1      14.905  13.886   0.863  1.00 20.00    +0.049 H 
ATOM     63 H63  LIG A   1      15.025  15.178   2.833  1.00 20.00    +0.160 HD
ATOM     64 H64  LIG A   1      17.269  12.265   3.256  1.00 20.00    +0.064 H 
ATOM     65 H65  LIG A   1      18.773  12.043   5.140  1.00 20.00    +0.063 H 
ATOM     66 H66  LIG A   1      20.215  11.872   7.125  1.00 20.00    +0.066 H 
ATOM     67 H67  LIG A   1      21.531  12.856   9.283  1.00 20.00    +0.066 H 
ATOM     68 H68  LIG A   1      22.344  14.702  10.719  1.00 20.00    +0.063 H 
ATOM     69 H69  LIG A   1      22.907  16.480  12.262  1.00 20.00    +0.064 H 
ATOM     70 H70  LIG A   1      20.828  19.503  12.649  1.00 20.00    +0.160 HD
ATOM     71 H71  LIG A   1      22.221  19.517  14.363  1.00 20.00    +0.049 H 
ATOM     72 H72  LIG A   1      22.515  17.823  14.058  1.00 20.00    +0.049 H 
ATOM     73 H73  LIG A   1      24.667  18.923  13.982  1.00 20.00    +0.030 H 
ATOM     74 H74  LIG A   1      24.282  18.517  12.317  1.00 20.00    +0.030 H 
ATOM     75 H75  LIG A   1      25.152  20.743  12.300  1.00 20.00    +0.043 H 
ATOM     76 H76  LIG A   1      23.425  20.855  11.961  1.00 20.00    +0.043 H 
ATOM     77 H77  LIG A   1      24.804  21.337  14.529  1.00 20.00    +0.122 HD
ATOM     78 H78  LIG A   1      24.186  23.516  14.423  1.00 20.00    +0.043 H 
ATOM     79 H79  LIG A   1      24.899  23.137  12.866  1.00 20.00    +0.043 H 
ATOM     80 H80  LIG A   1      22.605  22.903  11.874  1.00 20.00    +0.028 H 
ATOM     81 H81  LIG A   1      22.871  24.474  12.609  1.00 20.00    +0.028 H 
ATOM     82 H82  LIG A   1      21.631  23.755  14.657  1.00 20.00    +0.028 H 
ATOM     83 H83  LIG A   1      21.410  22.147  13.979  1.00 20.00    +0.028 H 
ATOM     84 H84  LIG A   1      20.063  23.080  12.100  1.00 20.00    +0.043 H 
ATOM     85 H85  LIG A   1      19.361  23.372  13.687  1.00 20.00    +0.043 H 
ATOM     86 H86  LIG A   1      20.350  25.585  13.610  1.00 20.00    +0.118 HD
ATOM     87 H87  LIG A   1      20.857  25.319  12.084  1.00 20.00    +0.118 HD
ATOM     88 H88  LIG A   1      19.699  18.877  10.690  1.00 20.00    +0.064 H 
ATOM     89 H89  LIG A   1      19.130  17.091   9.127  1.00 20.00    +0.063 H 
ATOM     90 H90  LIG A   1      17.701  16.000   6.470  1.00 20.00    +0.063 H 
ATOM     91 H91  LIG A   1      16.184  16.215   4.574  1.00 20.00    +0.064 H 
ATOM     92 H92  LIG A   1      18.910  18.722   7.080  1.00 20.00    +0.293 HD
ATOM     93 H93  LIG A   1      18.319  17.036   5.674  1.00 20.00    +0.066 H 
ATOM     94 H94  LIG A   1      17.420  14.736   5.553  1.00 20.00    +0.062 H 
ATOM     95 H95  LIG A   1      16.816  13.515   7.628  1.00 20.00    +0.062 H 
ATOM     96 H96  LIG A   1      17.115  14.604   9.846  1.00 20.00    +0.066 H 
ATOM     97 H97  LIG A   1      18.407  17.901  10.007  1.00 20.00    +0.293 HD
ENDROOT
TORSDOF 0
                                                                                                    
ENDMDL
MODEL 5
REMARK VINA RESULT:   -10.251      5.701     10.391
REMARK INTER + INTRA:         -10.251
REMARK INTER:                 -10.251
REMARK INTRA:                   0.000
REMARK UNBOUND:                 0.000
ROOT
ATOM      1 N1   LIG A   1      14.358   8.900   2.960  1.00 20.00    -0.330 NA
ATOM      2 C2   LIG A   1      14.129   9.869   4.027  1.00 20.00    -0.008 C 
ATOM      3 C3   LIG A   1      14.833  11.191   3.726  1.00 20.00    -0.040 C 
ATOM      4 C4   LIG A   1      14.573  12.220   4.832  1.00 20.00    -0.039 C 
ATOM      5 C5   LIG A   1      15.196  13.587   4.531  1.00 20.00    -0.005 C 
ATOM      6 N6   LIG A   1      16.656  13.499   4.479  1.00 20.00    -0.317 NA
ATOM      7 C7   LIG A   1      17.252  14.790   4.130  1.00 20.00    -0.003 C 
ATOM      8 C8   LIG A   1      18.776  14.658   4.084  1.00 20.00    -0.023 C 
ATOM      9 C9   LIG A   1      19.457  15.925   3.568  1.00 20.00    +0.016 C 
ATOM     10 N10  LIG A   1      19.284  17.067   4.456  1.00 20.00    -0.385 NA
ATOM     11 C11  LIG A   1      19.950  17.206   5.667  1.00 20.00    +0.034 A 
ATOM     12 C12  LIG A   1      21.063  16.447   6.039  1.00 20.00    -0.038 A 
ATOM     13 C13  LIG A   1      21.743  16.688   7.243  1.00 20.00    -0.049 A 
ATOM     14 C14  LIG A   1      21.348  17.718   8.104  1.00 20.00    +0.017 A 
ATOM     15 C15  LIG A   1      22.077  17.979   9.343  1.00 20.00    +0.134 A 
ATOM     16 C16  LIG A   1      23.139  17.375   9.985  1.00 20.00    -0.015 A 
ATOM     17 C17  LIG A   1      23.398  18.135  11.153  1.00 20.00    -0.015 A 
ATOM     18 C18  LIG A   1      22.480  19.167  11.168  1.00 20.00    +0.134 A 
ATOM     19 C19  LIG A   1      22.219  20.292  12.061  1.00 20.00    +0.017 A 
ATOM     20 C20  LIG A   1      23.096  20.592  13.110  1.00 20.00    -0.049 A 
ATOM     21 C21  LIG A   1      22.860  21.682  13.963  1.00 20.00    -0.038 A 
ATOM     22 C22  LIG A   1      21.728  22.487  13.818  1.00 20.00    +0.034 A 
ATOM     23 N23  LIG A   1      21.476  23.623  14.579  1.00 20.00    -0.385 NA
ATOM     24 C24  LIG A   1      22.179  23.921  15.824  1.00 20.00    +0.016 C 
ATOM     25 C25  LIG A   1      23.422  24.777  15.564  1.00 20.00    -0.023 C 
ATOM     26 C26  LIG A   1      23.092  26.186  15.063  1.00 20.00    -0.003 C 
ATOM     27 N27  LIG A   1      22.453  26.982  16.119  1.00 20.00    -0.317 NA
ATOM     28 C28  LIG A   1      21.994  28.285  15.632  1.00 20.00    -0.005 C 
ATOM     29 C29  LIG A   1      20.737  28.221  14.753  1.00 20.00    -0.039 C 
ATOM     30 C30  LIG A   1      19.545  27.573  15.468  1.00 20.00    -0.040 C 
ATOM     31 C31  LIG A   1      18.298  27.452  14.588  1.00 20.00    -0.008 C 
ATOM     32 N32  LIG A   1      17.741  28.743  14.197  1.00 20.00    -0.330 NA
ATOM     33 C33  LIG A   1      20.869  22.198  12.751  1.00 20.00    -0.038 A 
ATOM     34 C34  LIG A   1      21.101  21.115  11.892  1.00 20.00    -0.049 A 
ATOM     35 O35  LIG A   1      21.672  19.063  10.071  1.00 20.00    -0.456 OA
ATOM     36 C36  LIG A   1      20.252  18.499   7.723  1.00 20.00    -0.049 A 
ATOM     37 C37  LIG A   1      19.574  18.250   6.521  1.00 20.00    -0.038 A 
ATOM     38 O38  LIG A   1      19.712  21.939   9.785  1.00 20.00    -0.504 OA
ATOM     39 C39  LIG A   1      19.762  20.575   9.682  1.00 20.00    +0.157 A 
ATOM     40 C40  LIG A   1      20.033  19.939   8.477  1.00 20.00    -0.016 A 
ATOM     41 C41  LIG A   1      20.071  18.543   8.438  1.00 20.00    -0.058 A 
ATOM     42 C42  LIG A   1      19.840  17.797   9.599  1.00 20.00    -0.058 A 
ATOM     43 C43  LIG A   1      19.570  18.444  10.806  1.00 20.00    -0.016 A 
ATOM     44 C44  LIG A   1      19.533  19.830  10.837  1.00 20.00    +0.157 A 
ATOM     45 O45  LIG A   1      19.269  20.465  12.016  1.00 20.00    -0.504 OA
ATOM     46 H46  LIG A   1      14.041   9.291   2.074  1.00 20.00    +0.118 HD
ATOM     47 H47  LIG A   1      15.361   8.750   2.851  1.00 20.00    +0.118 HD
ATOM     48 H48  LIG A   1      14.494   9.451   4.970  1.00 20.00    +0.043 H 
ATOM     49 H49  LIG A   1      13.051  10.028   4.134  1.00 20.00    +0.043 H 
ATOM     50 H50  LIG A   1      14.478  11.591   2.767  1.00 20.00    +0.028 H 
ATOM     51 H51  LIG A   1      15.911  11.015   3.624  1.00 20.00    +0.028 H 
ATOM     52 H52  LIG A   1      13.491  12.355   4.950  1.00 20.00    +0.028 H 
ATOM     53 H53  LIG A   1      14.951  11.840   5.790  1.00 20.00    +0.028 H 
ATOM     54 H54  LIG A   1      14.892  14.292   5.314  1.00 20.00    +0.043 H 
ATOM     55 H55  LIG A   1      14.803  13.957   3.576  1.00 20.00    +0.043 H 
ATOM     56 H56  LIG A   1      17.009  13.195   5.387  1.00 20.00    +0.122 HD
ATOM     57 H57  LIG A   1      16.965  15.548   4.869  1.00 20.00    +0.043 H 
ATOM     58 H58  LIG A   1      16.885  15.113   3.148  1.00 20.00    +0.043 H 
ATOM     59 H59  LIG A   1      19.155  14.391   5.078  1.00 20.00    +0.030 H 
ATOM     60 H60  LIG A   1      19.045  13.834   3.411  1.00 20.00    +0.030 H 
ATOM     61 H61  LIG A   1      20.520  15.736   3.383  1.00 20.00    +0.049 H 
ATOM     62 H62  LIG A   1      19.033  16.191   2.592  1.00 20.00    +0.049 H 
ATOM     63 H63  LIG A   1      18.349  17.465   4.456  1.00 20.00    +0.160 HD
ATOM     64 H64  LIG A   1      21.434  15.651   5.401  1.00 20.00    +0.064 H 
ATOM     65 H65  LIG A   1      22.598  16.061   7.483  1.00 20.00    +0.063 H 
ATOM     66 H66  LIG A   1      23.672  16.496   9.653  1.00 20.00    +0.066 H 
ATOM     67 H67  LIG A   1      24.167  17.952  11.888  1.00 20.00    +0.066 H 
ATOM     68 H68  LIG A   1      23.989  19.994  13.275  1.00 20.00    +0.063 H 
ATOM     69 H69  LIG A   1      23.591  21.881  14.739  1.00 20.00    +0.064 H 
ATOM     70 H70  LIG A   1      20.491  23.875  14.608  1.00 20.00    +0.160 HD
ATOM     71 H71  LIG A   1      21.492  24.457  16.489  1.00 20.00    +0.049 H 
ATOM     72 H72  LIG A   1      22.448  23.002  16.357  1.00 20.00    +0.049 H 
ATOM     73 H73  LIG A   1      24.008  24.845  16.490  1.00 20.00    +0.030 H 
ATOM     74 H74  LIG A   1      24.067  24.290  14.824  1.00 20.00    +0.030 H 
ATOM     75 H75  LIG A   1      24.022  26.679  14.755  1.00 20.00    +0.043 H 
ATOM     76 H76  LIG A   1      22.456  26.111  14.176  1.00 20.00    +0.043 H 
ATOM     77 H77  LIG A   1      23.135  27.135  16.863  1.00 20.00    +0.122 HD
ATOM     78 H78  LIG A   1      21.764  28.905  16.508  1.00 20.00    +0.043 H 
ATOM     79 H79  LIG A   1      22.799  28.801  15.095  1.00 20.00    +0.043 H 
ATOM     80 H80  LIG A   1      20.947  27.683  13.822  1.00 20.00    +0.028 H 
ATOM     81 H81  LIG A   1      20.482  29.248  14.464  1.00 20.00    +0.028 H 
ATOM     82 H82  LIG A   1      19.305  28.145  16.373  1.00 20.00    +0.028 H 
ATOM     83 H83  LIG A   1      19.816  26.564  15.797  1.00 20.00    +0.028 H 
ATOM     84 H84  LIG A   1      18.525  26.871  13.687  1.00 20.00    +0.043 H 
ATOM     85 H85  LIG A   1      17.528  26.899  15.137  1.00 20.00    +0.043 H 
ATOM     86 H86  LIG A   1      17.606  29.321  15.025  1.00 20.00    +0.118 HD
ATOM     87 H87  LIG A   1      18.405  29.242  13.607  1.00 20.00    +0.118 HD
ATOM     88 H88  LIG A   1      20.001  22.826  12.568  1.00 20.00    +0.064 H 
ATOM     89 H89  LIG A   1      20.399  20.930  11.083  1.00 20.00    +0.063 H 
ATOM     90 H90  LIG A   1      19.918  19.323   8.349  1.00 20.00    +0.063 H 
ATOM     91 H91  LIG A   1      18.746  18.901   6.253  1.00 20.00    +0.064 H 
ATOM     92 H92  LIG A   1      19.898  22.312   8.907  1.00 20.00    +0.293 HD
ATOM     93 H93  LIG A   1      20.213  20.503   7.566  1.00 20.00    +0.066 H 
ATOM     94 H94  LIG A   1      20.281  18.031   7.501  1.00 20.00    +0.062 H 
ATOM     95 H95  LIG A   1      19.871  16.711   9.562  1.00 20.00    +0.062 H 
ATOM     96 H96  LIG A   1      19.388  17.873  11.711  1.00 20.00    +0.066 H 
ATOM     97 H97  LIG A   1      19.296  21.415  11.792  1.00 20.00    +0.293 HD
ENDROOT
TORSDOF 0
                                                                                                    
ENDMDL
MODEL 6
REMARK VINA RESULT:    -9.740      2.333     13.243
REMARK INTER + INTRA:          -9.740
REMARK INTER:                  -9.740
REMARK INTRA:                   0.000
REMARK UNBOUND:                 0.000
ROOT
ATOM      1 N1   LIG A   1      23.574  22.832  12.738  1.00 20.00    -0.330 NA
ATOM      2 C2   LIG A   1      22.644  22.780  11.616  1.00 20.00    -0.008 C 
ATOM      3 C3   LIG A   1      21.653  21.629  11.778  1.00 20.00    -0.040 C 
ATOM      4 C4   LIG A   1      20.658  21.588  10.613  1.00 20.00    -0.039 C 
ATOM      5 C5   LIG A   1      19.595  20.496  10.777  1.00 20.00    -0.005 C 
ATOM      6 N6   LIG A   1      20.203  19.165  10.758  1.00 20.00    -0.317 NA
ATOM      7 C7   LIG A   1      19.199  18.121  10.976  1.00 20.00    -0.003 C 
ATOM      8 C8   LIG A   1      19.871  16.747  10.951  1.00 20.00    -0.023 C 
ATOM      9 C9   LIG A   1      18.912  15.620  11.333  1.00 20.00    +0.016 C 
ATOM     10 N10  LIG A   1      17.831  15.441  10.372  1.00 20.00    -0.385 NA
ATOM     11 C11  LIG A   1      18.005  14.865   9.120  1.00 20.00    +0.034 A 
ATOM     12 C12  LIG A   1      19.133  14.129   8.748  1.00 20.00    -0.038 A 
ATOM     13 C13  LIG A   1      19.217  13.503   7.495  1.00 20.00    -0.049 A 
ATOM     14 C14  LIG A   1      18.160  13.567   6.581  1.00 20.00    +0.017 A 
ATOM     15 C15  LIG A   1      18.244  12.890   5.289  1.00 20.00    +0.134 A 
ATOM     16 C16  LIG A   1      19.223  12.167   4.638  1.00 20.00    -0.015 A 
ATOM     17 C17  LIG A   1      18.669  11.744   3.404  1.00 20.00    -0.015 A 
ATOM     18 C18  LIG A   1      17.377  12.231   3.361  1.00 20.00    +0.134 A 
ATOM     19 C19  LIG A   1      16.281  12.140   2.400  1.00 20.00    +0.017 A 
ATOM     20 C20  LIG A   1      16.373  11.297   1.286  1.00 20.00    -0.049 A 
ATOM     21 C21  LIG A   1      15.317  11.192   0.368  1.00 20.00    -0.038 A 
ATOM     22 C22  LIG A   1      14.149  11.947   0.511  1.00 20.00    +0.034 A 
ATOM     23 N23  LIG A   1      13.040  11.834  -0.318  1.00 20.00    -0.385 NA
ATOM     24 C24  LIG A   1      13.081  11.168  -1.618  1.00 20.00    +0.016 C 
ATOM     25 C25  LIG A   1      12.721   9.685  -1.490  1.00 20.00    -0.023 C 
ATOM     26 C26  LIG A   1      11.264   9.449  -1.079  1.00 20.00    -0.003 C 
ATOM     27 N27  LIG A   1      10.346   9.841  -2.157  1.00 20.00    -0.317 NA
ATOM     28 C28  LIG A   1       8.942   9.765  -1.746  1.00 20.00    -0.005 C 
ATOM     29 C29  LIG A   1       8.502  10.889  -0.799  1.00 20.00    -0.039 C 
ATOM     30 C30  LIG A   1       8.710  12.286  -1.398  1.00 20.00    -0.040 C 
ATOM     31 C31  LIG A   1       8.326  13.422  -0.447  1.00 20.00    -0.008 C 
ATOM     32 N32  LIG A   1       6.903  13.448  -0.125  1.00 20.00    -0.330 NA
ATOM     33 C33  LIG A   1      14.053  12.767   1.642  1.00 20.00    -0.038 A 
ATOM     34 C34  LIG A   1      15.101  12.873   2.566  1.00 20.00    -0.049 A 
ATOM     35 O35  LIG A   1      17.125  12.936   4.504  1.00 20.00    -0.456 OA
ATOM     36 C36  LIG A   1      17.016  14.279   6.960  1.00 20.00    -0.049 A 
ATOM     37 C37  LIG A   1      16.941  14.906   8.211  1.00 20.00    -0.038 A 
ATOM     38 O38  LIG A   1      13.724  13.710   4.676  1.00 20.00    -0.504 OA
ATOM     39 C39  LIG A   1      15.006  14.142   4.878  1.00 20.00    +0.157 A 
ATOM     40 C40  LIG A   1      15.635  14.025   6.112  1.00 20.00    -0.016 A 
ATOM     41 C41  LIG A   1      16.947  14.486   6.254  1.00 20.00    -0.058 A 
ATOM     42 C42  LIG A   1      17.617  15.057   5.166  1.00 20.00    -0.058 A 
ATOM     43 C43  LIG A   1      16.978  15.170   3.930  1.00 20.00    -0.016 A 
ATOM     44 C44  LIG A   1      15.676  14.711   3.797  1.00 20.00    +0.157 A 
ATOM     45 O45  LIG A   1      15.050  14.821   2.589  1.00 20.00    -0.504 OA
ATOM     46 H46  LIG A   1      23.050  22.919  13.609  1.00 20.00    +0.118 HD
ATOM     47 H47  LIG A   1      24.072  21.944  12.805  1.00 20.00    +0.118 HD
ATOM     48 H48  LIG A   1      23.213  22.663  10.689  1.00 20.00    +0.043 H 
ATOM     49 H49  LIG A   1      22.111  23.735  11.554  1.00 20.00    +0.043 H 
ATOM     50 H50  LIG A   1      21.103  21.743  12.722  1.00 20.00    +0.028 H 
ATOM     51 H51  LIG A   1      22.201  20.681  11.836  1.00 20.00    +0.028 H 
ATOM     52 H52  LIG A   1      20.147  22.556  10.543  1.00 20.00    +0.028 H 
ATOM     53 H53  LIG A   1      21.197  21.446   9.668  1.00 20.00    +0.028 H 
ATOM     54 H54  LIG A   1      18.869  20.587   9.960  1.00 20.00    +0.043 H 
ATOM     55 H55  LIG A   1      19.060  20.657  11.720  1.00 20.00    +0.043 H 
ATOM     56 H56  LIG A   1      20.660  19.015   9.857  1.00 20.00    +0.122 HD
ATOM     57 H57  LIG A   1      18.428  18.174  10.199  1.00 20.00    +0.043 H 
ATOM     58 H58  LIG A   1      18.715  18.272  11.949  1.00 20.00    +0.043 H 
ATOM     59 H59  LIG A   1      20.307  16.566   9.961  1.00 20.00    +0.030 H 
ATOM     60 H60  LIG A   1      20.702  16.740  11.669  1.00 20.00    +0.030 H 
ATOM     61 H61  LIG A   1      19.463  14.684  11.475  1.00 20.00    +0.049 H 
ATOM     62 H62  LIG A   1      18.461  15.845  12.307  1.00 20.00    +0.049 H 
ATOM     63 H63  LIG A   1      17.123  16.169  10.392  1.00 20.00    +0.160 HD
ATOM     64 H64  LIG A   1      19.976  14.019   9.423  1.00 20.00    +0.064 H 
ATOM     65 H65  LIG A   1      20.122  12.949   7.257  1.00 20.00    +0.063 H 
ATOM     66 H66  LIG A   1      20.217  11.960   5.007  1.00 20.00    +0.066 H 
ATOM     67 H67  LIG A   1      19.155  11.150   2.645  1.00 20.00    +0.066 H 
ATOM     68 H68  LIG A   1      17.261  10.692   1.120  1.00 20.00    +0.063 H 
ATOM     69 H69  LIG A   1      15.435  10.500  -0.459  1.00 20.00    +0.064 H 
ATOM     70 H70  LIG A   1      12.450  12.662  -0.314  1.00 20.00    +0.160 HD
ATOM     71 H71  LIG A   1      12.367  11.667  -2.284  1.00 20.00    +0.049 H 
ATOM     72 H72  LIG A   1      14.061  11.287  -2.094  1.00 20.00    +0.049 H 
ATOM     73 H73  LIG A   1      12.917   9.187  -2.448  1.00 20.00    +0.030 H 
ATOM     74 H74  LIG A   1      13.369   9.202  -0.751  1.00 20.00    +0.030 H 
ATOM     75 H75  LIG A   1      11.126   8.384  -0.859  1.00 20.00    +0.043 H 
ATOM     76 H76  LIG A   1      11.059  10.000  -0.157  1.00 20.00    +0.043 H 
ATOM     77 H77  LIG A   1      10.488   9.209  -2.946  1.00 20.00    +0.122 HD
ATOM     78 H78  LIG A   1       8.326   9.824  -2.652  1.00 20.00    +0.043 H 
ATOM     79 H79  LIG A   1       8.726   8.790  -1.293  1.00 20.00    +0.043 H 
ATOM     80 H80  LIG A   1       9.031  10.815   0.157  1.00 20.00    +0.028 H 
ATOM     81 H81  LIG A   1       7.439  10.738  -0.575  1.00 20.00    +0.028 H 
ATOM     82 H82  LIG A   1       8.137  12.374  -2.331  1.00 20.00    +0.028 H 
ATOM     83 H83  LIG A   1       9.764  12.420  -1.665  1.00 20.00    +0.028 H 
ATOM     84 H84  LIG A   1       8.903  13.350   0.481  1.00 20.00    +0.043 H 
ATOM     85 H85  LIG A   1       8.590  14.378  -0.911  1.00 20.00    +0.043 H 
ATOM     86 H86  LIG A   1       6.359  13.432  -0.987  1.00 20.00    +0.118 HD
ATOM     87 H87  LIG A   1       6.649  12.607   0.389  1.00 20.00    +0.118 HD
ATOM     88 H88  LIG A   1      13.145  13.337   1.823  1.00 20.00    +0.064 H 
ATOM     89 H89  LIG A   1      14.978  13.531   3.423  1.00 20.00    +0.063 H 
ATOM     90 H90  LIG A   1      16.160  14.343   6.292  1.00 20.00    +0.063 H 
ATOM     91 H91  LIG A   1      16.022  15.424   8.473  1.00 20.00    +0.064 H 
ATOM     92 H92  LIG A   1      13.399  13.336   5.512  1.00 20.00    +0.293 HD
ATOM     93 H93  LIG A   1      15.129  13.586   6.967  1.00 20.00    +0.066 H 
ATOM     94 H94  LIG A   1      17.451  14.402   7.214  1.00 20.00    +0.062 H 
ATOM     95 H95  LIG A   1      18.636  15.414   5.283  1.00 20.00    +0.062 H 
ATOM     96 H96  LIG A   1      17.490  15.613   3.082  1.00 20.00    +0.066 H 
ATOM     97 H97  LIG A   1      14.164  14.437   2.739  1.00 20.00    +0.293 HD
ENDROOT
TORSDOF 0
                                                                                                    
ENDMDL
MODEL 7
REMARK VINA RESULT:    -9.615      3.854     14.301
REMARK INTER + INTRA:          -9.615
REMARK INTER:                  -9.615
REMARK INTRA:                   0.000
REMARK UNBOUND:                 0.000
ROOT
ATOM      1 N1   LIG A   1      24.846  27.652  14.034  1.00 20.00    -0.330 NA
ATOM      2 C2   LIG A   1      23.983  27.312  12.908  1.00 20.00    -0.008 C 
ATOM      3 C3   LIG A   1      23.176  26.047  13.197  1.00 20.00    -0.040 C 
ATOM      4 C4   LIG A   1      22.250  25.703  12.026  1.00 20.00    -0.039 C 
ATOM      5 C5   LIG A   1      21.363  24.486  12.306  1.00 20.00    -0.005 C 
ATOM      6 N6   LIG A   1      22.169  23.276  12.475  1.00 20.00    -0.317 NA
ATOM      7 C7   LIG A   1      21.331  22.122  12.805  1.00 20.00    -0.003 C 
ATOM      8 C8   LIG A   1      22.208  20.880  12.974  1.00 20.00    -0.023 C 
ATOM      9 C9   LIG A   1      21.419  19.672  13.479  1.00 20.00    +0.016 C 
ATOM     10 N10  LIG A   1      20.420  19.205  12.526  1.00 20.00    -0.385 NA
ATOM     11 C11  LIG A   1      20.735  18.511  11.364  1.00 20.00    +0.034 A 
ATOM     12 C12  LIG A   1      21.978  17.923  11.116  1.00 20.00    -0.038 A 
ATOM     13 C13  LIG A   1      22.210  17.166   9.958  1.00 20.00    -0.049 A 
ATOM     14 C14  LIG A   1      21.196  16.946   9.020  1.00 20.00    +0.017 A 
ATOM     15 C15  LIG A   1      21.438  16.135   7.829  1.00 20.00    +0.134 A 
ATOM     16 C16  LIG A   1      22.544  15.501   7.300  1.00 20.00    -0.015 A 
ATOM     17 C17  LIG A   1      22.115  14.843   6.120  1.00 20.00    -0.015 A 
ATOM     18 C18  LIG A   1      20.766  15.110   5.985  1.00 20.00    +0.134 A 
ATOM     19 C19  LIG A   1      19.739  14.726   5.020  1.00 20.00    +0.017 A 
ATOM     20 C20  LIG A   1      20.007  13.776   4.028  1.00 20.00    -0.049 A 
ATOM     21 C21  LIG A   1      19.020  13.391   3.108  1.00 20.00    -0.038 A 
ATOM     22 C22  LIG A   1      17.745  13.962   3.126  1.00 20.00    +0.034 A 
ATOM     23 N23  LIG A   1      16.703  13.571   2.294  1.00 20.00    -0.385 NA
ATOM     24 C24  LIG A   1      16.901  12.763   1.094  1.00 20.00    +0.016 C 
ATOM     25 C25  LIG A   1      16.770  11.269   1.406  1.00 20.00    -0.023 C 
ATOM     26 C26  LIG A   1      15.351  10.858   1.811  1.00 20.00    -0.003 C 
ATOM     27 N27  LIG A   1      14.429  10.961   0.671  1.00 20.00    -0.317 NA
ATOM     28 C28  LIG A   1      13.038  10.715   1.057  1.00 20.00    -0.005 C 
ATOM     29 C29  LIG A   1      12.390  11.865   1.840  1.00 20.00    -0.039 C 
ATOM     30 C30  LIG A   1      12.404  13.191   1.068  1.00 20.00    -0.040 C 
ATOM     31 C31  LIG A   1      11.810  14.362   1.855  1.00 20.00    -0.008 C 
ATOM     32 N32  LIG A   1      10.387  14.202   2.138  1.00 20.00    -0.330 NA
ATOM     33 C33  LIG A   1      17.475  14.892   4.137  1.00 20.00    -0.038 A 
ATOM     34 C34  LIG A   1      18.454  15.277   5.062  1.00 20.00    -0.049 A 
ATOM     35 O35  LIG A   1      20.360  15.903   7.020  1.00 20.00    -0.456 OA
ATOM     36 C36  LIG A   1      19.940  17.509   9.277  1.00 20.00    -0.049 A 
ATOM     37 C37  LIG A   1      19.716  18.269  10.434  1.00 20.00    -0.038 A 
ATOM     38 O38  LIG A   1      16.876  16.143   7.015  1.00 20.00    -0.504 OA
ATOM     39 C39  LIG A   1      18.066  16.795   7.187  1.00 20.00    +0.157 A 
ATOM     40 C40  LIG A   1      18.652  16.935   8.439  1.00 20.00    -0.016 A 
ATOM     41 C41  LIG A   1      19.870  17.613   8.549  1.00 20.00    -0.058 A 
ATOM     42 C42  LIG A   1      20.489  18.142   7.411  1.00 20.00    -0.058 A 
ATOM     43 C43  LIG A   1      19.894  17.997   6.157  1.00 20.00    -0.016 A 
ATOM     44 C44  LIG A   1      18.686  17.323   6.056  1.00 20.00    +0.157 A 
ATOM     45 O45  LIG A   1      18.102  17.180   4.830  1.00 20.00    -0.504 OA
ATOM     46 H46  LIG A   1      24.278  27.763  14.874  1.00 20.00    +0.118 HD
ATOM     47 H47  LIG A   1      25.471  26.869  14.227  1.00 20.00    +0.118 HD
ATOM     48 H48  LIG A   1      24.603  27.172  12.017  1.00 20.00    +0.043 H 
ATOM     49 H49  LIG A   1      23.312  28.155  12.710  1.00 20.00    +0.043 H 
ATOM     50 H50  LIG A   1      22.576  26.190  14.106  1.00 20.00    +0.028 H 
ATOM     51 H51  LIG A   1      23.862  25.213  13.390  1.00 20.00    +0.028 H 
ATOM     52 H52  LIG A   1      21.599  26.562  11.818  1.00 20.00    +0.028 H 
ATOM     53 H53  LIG A   1      22.844  25.532  11.119  1.00 20.00    +0.028 H 
ATOM     54 H54  LIG A   1      20.667  24.358  11.469  1.00 20.00    +0.043 H 
ATOM     55 H55  LIG A   1      20.770  24.676  13.209  1.00 20.00    +0.043 H 
ATOM     56 H56  LIG A   1      22.682  23.089  11.612  1.00 20.00    +0.122 HD
ATOM     57 H57  LIG A   1      20.594  21.954  12.010  1.00 20.00    +0.043 H 
ATOM     58 H58  LIG A   1      20.788  22.315  13.739  1.00 20.00    +0.043 H 
ATOM     59 H59  LIG A   1      22.708  20.648  12.027  1.00 20.00    +0.030 H 
ATOM     60 H60  LIG A   1      22.998  21.095  13.705  1.00 20.00    +0.030 H 
ATOM     61 H61  LIG A   1      22.102  18.861  13.754  1.00 20.00    +0.049 H 
ATOM     62 H62  LIG A   1      20.898  19.943  14.405  1.00 20.00    +0.049 H 
ATOM     63 H63  LIG A   1      19.608  19.807  12.435  1.00 20.00    +0.160 HD
ATOM     64 H64  LIG A   1      22.798  18.034  11.818  1.00 20.00    +0.064 H 
ATOM     65 H65  LIG A   1      23.200  16.737   9.814  1.00 20.00    +0.063 H 
ATOM     66 H66  LIG A   1      23.541  15.502   7.714  1.00 20.00    +0.066 H 
ATOM     67 H67  LIG A   1      22.719  14.244   5.456  1.00 20.00    +0.066 H 
ATOM     68 H68  LIG A   1      20.984  13.304   3.962  1.00 20.00    +0.063 H 
ATOM     69 H69  LIG A   1      19.280  12.627   2.382  1.00 20.00    +0.064 H 
ATOM     70 H70  LIG A   1      15.993  14.289   2.177  1.00 20.00    +0.160 HD
ATOM     71 H71  LIG A   1      16.148  13.055   0.352  1.00 20.00    +0.049 H 
ATOM     72 H72  LIG A   1      17.870  12.975   0.628  1.00 20.00    +0.049 H 
ATOM     73 H73  LIG A   1      17.081  10.692   0.525  1.00 20.00    +0.030 H 
ATOM     74 H74  LIG A   1      17.453  10.992   2.216  1.00 20.00    +0.030 H 
ATOM     75 H75  LIG A   1      15.370   9.821   2.165  1.00 20.00    +0.043 H 
ATOM     76 H76  LIG A   1      15.024  11.481   2.649  1.00 20.00    +0.043 H 
ATOM     77 H77  LIG A   1      14.701  10.266  -0.025  1.00 20.00    +0.122 HD
ATOM     78 H78  LIG A   1      12.460  10.562   0.138  1.00 20.00    +0.043 H 
ATOM     79 H79  LIG A   1      12.957   9.783   1.629  1.00 20.00    +0.043 H 
ATOM     80 H80  LIG A   1      12.883  11.997   2.809  1.00 20.00    +0.028 H 
ATOM     81 H81  LIG A   1      11.355  11.576   2.058  1.00 20.00    +0.028 H 
ATOM     82 H82  LIG A   1      11.865  13.069   0.120  1.00 20.00    +0.028 H 
ATOM     83 H83  LIG A   1      13.436  13.456   0.810  1.00 20.00    +0.028 H 
ATOM     84 H84  LIG A   1      12.351  14.499   2.797  1.00 20.00    +0.043 H 
ATOM     85 H85  LIG A   1      11.942  15.282   1.275  1.00 20.00    +0.043 H 
ATOM     86 H86  LIG A   1       9.890  13.991   1.275  1.00 20.00    +0.118 HD
ATOM     87 H87  LIG A   1      10.245  13.402   2.752  1.00 20.00    +0.118 HD
ATOM     88 H88  LIG A   1      16.483  15.328   4.222  1.00 20.00    +0.064 H 
ATOM     89 H89  LIG A   1      18.194  16.009   5.824  1.00 20.00    +0.063 H 
ATOM     90 H90  LIG A   1      19.114  17.353   8.588  1.00 20.00    +0.063 H 
ATOM     91 H91  LIG A   1      18.718  18.663  10.605  1.00 20.00    +0.064 H 
ATOM     92 H92  LIG A   1      16.578  15.830   7.885  1.00 20.00    +0.293 HD
ATOM     93 H93  LIG A   1      18.185  16.532   9.332  1.00 20.00    +0.066 H 
ATOM     94 H94  LIG A   1      20.340  17.731   9.523  1.00 20.00    +0.062 H 
ATOM     95 H95  LIG A   1      21.436  18.668   7.503  1.00 20.00    +0.062 H 
ATOM     96 H96  LIG A   1      20.367  18.405   5.269  1.00 20.00    +0.066 H 
ATOM     97 H97  LIG A   1      17.280  16.683   5.010  1.00 20.00    +0.293 HD
ENDROOT
TORSDOF 0
                                                                                                    
ENDMDL
MODEL 8
REMARK VINA RESULT:    -9.187      6.288     16.108
REMARK INTER + INTRA:          -9.187
REMARK INTER:                  -9.187
REMARK INTRA:                   0.000
REMARK UNBOUND:                 0.000
ROOT
ATOM      1 N1   LIG A   1      22.658  30.934  17.248  1.00 20.00    -0.330 NA
ATOM      2 C2   LIG A   1      21.634  30.006  16.780  1.00 20.00    -0.008 C 
ATOM      3 C3   LIG A   1      22.188  28.586  16.673  1.00 20.00    -0.040 C 
ATOM      4 C4   LIG A   1      21.108  27.604  16.207  1.00 20.00    -0.039 C 
ATOM      5 C5   LIG A   1      21.600  26.154  16.163  1.00 20.00    -0.005 C 
ATOM      6 N6   LIG A   1      22.666  25.991  15.173  1.00 20.00    -0.317 NA
ATOM      7 C7   LIG A   1      23.182  24.621  15.171  1.00 20.00    -0.003 C 
ATOM      8 C8   LIG A   1      24.292  24.491  14.126  1.00 20.00    -0.023 C 
ATOM      9 C9   LIG A   1      24.989  23.131  14.181  1.00 20.00    +0.016 C 
ATOM     10 N10  LIG A   1      24.111  22.025  13.823  1.00 20.00    -0.385 NA
ATOM     11 C11  LIG A   1      23.702  21.760  12.521  1.00 20.00    +0.034 A 
ATOM     12 C12  LIG A   1      24.301  22.312  11.386  1.00 20.00    -0.038 A 
ATOM     13 C13  LIG A   1      23.896  21.945  10.094  1.00 20.00    -0.049 A 
ATOM     14 C14  LIG A   1      22.895  20.988   9.893  1.00 20.00    +0.017 A 
ATOM     15 C15  LIG A   1      22.497  20.591   8.545  1.00 20.00    +0.134 A 
ATOM     16 C16  LIG A   1      22.851  20.996   7.274  1.00 20.00    -0.015 A 
ATOM     17 C17  LIG A   1      22.119  20.189   6.367  1.00 20.00    -0.015 A 
ATOM     18 C18  LIG A   1      21.351  19.330   7.130  1.00 20.00    +0.134 A 
ATOM     19 C19  LIG A   1      20.410  18.256   6.826  1.00 20.00    +0.017 A 
ATOM     20 C20  LIG A   1      20.245  17.798   5.514  1.00 20.00    -0.049 A 
ATOM     21 C21  LIG A   1      19.354  16.755   5.217  1.00 20.00    -0.038 A 
ATOM     22 C22  LIG A   1      18.576  16.157   6.211  1.00 20.00    +0.034 A 
ATOM     23 N23  LIG A   1      17.733  15.073   5.997  1.00 20.00    -0.385 NA
ATOM     24 C24  LIG A   1      17.309  14.644   4.667  1.00 20.00    +0.016 C 
ATOM     25 C25  LIG A   1      18.263  13.591   4.096  1.00 20.00    -0.023 C 
ATOM     26 C26  LIG A   1      18.228  12.265   4.862  1.00 20.00    -0.003 C 
ATOM     27 N27  LIG A   1      16.945  11.578   4.664  1.00 20.00    -0.317 NA
ATOM     28 C28  LIG A   1      16.821  10.379   5.496  1.00 20.00    -0.005 C 
ATOM     29 C29  LIG A   1      16.575  10.668   6.983  1.00 20.00    -0.039 C 
ATOM     30 C30  LIG A   1      15.311  11.502   7.225  1.00 20.00    -0.040 C 
ATOM     31 C31  LIG A   1      15.078  11.846   8.698  1.00 20.00    -0.008 C 
ATOM     32 N32  LIG A   1      14.820  10.674   9.529  1.00 20.00    -0.330 NA
ATOM     33 C33  LIG A   1      18.765  16.602   7.526  1.00 20.00    -0.038 A 
ATOM     34 C34  LIG A   1      19.657  17.639   7.830  1.00 20.00    -0.049 A 
ATOM     35 O35  LIG A   1      21.576  19.584   8.453  1.00 20.00    -0.456 OA
ATOM     36 C36  LIG A   1      22.312  20.411  11.027  1.00 20.00    -0.049 A 
ATOM     37 C37  LIG A   1      22.718  20.786  12.315  1.00 20.00    -0.038 A 
ATOM     38 O38  LIG A   1      20.087  17.091  10.392  1.00 20.00    -0.504 OA
ATOM     39 C39  LIG A   1      20.349  18.426  10.253  1.00 20.00    +0.157 A 
ATOM     40 C40  LIG A   1      21.463  19.021  10.833  1.00 20.00    -0.016 A 
ATOM     41 C41  LIG A   1      21.675  20.390  10.653  1.00 20.00    -0.058 A 
ATOM     42 C42  LIG A   1      20.776  21.151   9.897  1.00 20.00    -0.058 A 
ATOM     43 C43  LIG A   1      19.660  20.546   9.317  1.00 20.00    -0.016 A 
ATOM     44 C44  LIG A   1      19.456  19.187   9.500  1.00 20.00    +0.157 A 
ATOM     45 O45  LIG A   1      18.365  18.593   8.933  1.00 20.00    -0.504 OA
ATOM     46 H46  LIG A   1      23.020  30.613  18.146  1.00 20.00    +0.118 HD
ATOM     47 H47  LIG A   1      23.451  30.911  16.608  1.00 20.00    +0.118 HD
ATOM     48 H48  LIG A   1      21.268  30.344  15.806  1.00 20.00    +0.043 H 
ATOM     49 H49  LIG A   1      20.788  30.033  17.475  1.00 20.00    +0.043 H 
ATOM     50 H50  LIG A   1      22.574  28.264  17.650  1.00 20.00    +0.028 H 
ATOM     51 H51  LIG A   1      23.032  28.576  15.973  1.00 20.00    +0.028 H 
ATOM     52 H52  LIG A   1      20.254  27.656  16.894  1.00 20.00    +0.028 H 
ATOM     53 H53  LIG A   1      20.736  27.903  15.218  1.00 20.00    +0.028 H 
ATOM     54 H54  LIG A   1      20.754  25.503  15.913  1.00 20.00    +0.043 H 
ATOM     55 H55  LIG A   1      21.960  25.869  17.159  1.00 20.00    +0.043 H 
ATOM     56 H56  LIG A   1      22.303  26.219  14.245  1.00 20.00    +0.122 HD
ATOM     57 H57  LIG A   1      22.374  23.915  14.947  1.00 20.00    +0.043 H 
ATOM     58 H58  LIG A   1      23.585  24.377  16.162  1.00 20.00    +0.043 H 
ATOM     59 H59  LIG A   1      23.883  24.676  13.126  1.00 20.00    +0.030 H 
ATOM     60 H60  LIG A   1      25.050  25.264  14.308  1.00 20.00    +0.030 H 
ATOM     61 H61  LIG A   1      25.883  23.137  13.547  1.00 20.00    +0.049 H 
ATOM     62 H62  LIG A   1      25.354  22.954  15.200  1.00 20.00    +0.049 H 
ATOM     63 H63  LIG A   1      23.414  21.794  14.525  1.00 20.00    +0.160 HD
ATOM     64 H64  LIG A   1      25.101  23.040  11.475  1.00 20.00    +0.064 H 
ATOM     65 H65  LIG A   1      24.393  22.412   9.247  1.00 20.00    +0.063 H 
ATOM     66 H66  LIG A   1      23.557  21.774   7.023  1.00 20.00    +0.066 H 
ATOM     67 H67  LIG A   1      22.156  20.229   5.289  1.00 20.00    +0.066 H 
ATOM     68 H68  LIG A   1      20.819  18.232   4.698  1.00 20.00    +0.063 H 
ATOM     69 H69  LIG A   1      19.292  16.424   4.186  1.00 20.00    +0.064 H 
ATOM     70 H70  LIG A   1      16.997  14.993   6.694  1.00 20.00    +0.160 HD
ATOM     71 H71  LIG A   1      16.298  14.226   4.745  1.00 20.00    +0.049 H 
ATOM     72 H72  LIG A   1      17.223  15.497   3.984  1.00 20.00    +0.049 H 
ATOM     73 H73  LIG A   1      18.008  13.413   3.043  1.00 20.00    +0.030 H 
ATOM     74 H74  LIG A   1      19.291  13.968   4.106  1.00 20.00    +0.030 H 
ATOM     75 H75  LIG A   1      19.039  11.623   4.496  1.00 20.00    +0.043 H 
ATOM     76 H76  LIG A   1      18.420  12.459   5.921  1.00 20.00    +0.043 H 
ATOM     77 H77  LIG A   1      16.876  11.302   3.684  1.00 20.00    +0.122 HD
ATOM     78 H78  LIG A   1      15.971   9.798   5.119  1.00 20.00    +0.043 H 
ATOM     79 H79  LIG A   1      17.705   9.739   5.382  1.00 20.00    +0.043 H 
ATOM     80 H80  LIG A   1      17.441  11.173   7.425  1.00 20.00    +0.028 H 
ATOM     81 H81  LIG A   1      16.485   9.704   7.498  1.00 20.00    +0.028 H 
ATOM     82 H82  LIG A   1      14.438  10.969   6.826  1.00 20.00    +0.028 H 
ATOM     83 H83  LIG A   1      15.381  12.447   6.672  1.00 20.00    +0.028 H 
ATOM     84 H84  LIG A   1      15.939  12.390   9.101  1.00 20.00    +0.043 H 
ATOM     85 H85  LIG A   1      14.215  12.516   8.774  1.00 20.00    +0.043 H 
ATOM     86 H86  LIG A   1      14.074  10.119   9.113  1.00 20.00    +0.118 HD
ATOM     87 H87  LIG A   1      15.644  10.076   9.548  1.00 20.00    +0.118 HD
ATOM     88 H88  LIG A   1      18.218  16.135   8.341  1.00 20.00    +0.064 H 
ATOM     89 H89  LIG A   1      19.761  17.951   8.867  1.00 20.00    +0.063 H 
ATOM     90 H90  LIG A   1      21.542  19.649  10.924  1.00 20.00    +0.063 H 
ATOM     91 H91  LIG A   1      22.256  20.290  13.165  1.00 20.00    +0.064 H 
ATOM     92 H92  LIG A   1      20.796  16.701  10.931  1.00 20.00    +0.293 HD
ATOM     93 H93  LIG A   1      22.169  18.446  11.424  1.00 20.00    +0.066 H 
ATOM     94 H94  LIG A   1      22.542  20.869  11.103  1.00 20.00    +0.062 H 
ATOM     95 H95  LIG A   1      20.946  22.216   9.761  1.00 20.00    +0.062 H 
ATOM     96 H96  LIG A   1      18.958  21.129   8.730  1.00 20.00    +0.066 H 
ATOM     97 H97  LIG A   1      18.436  17.654   9.196  1.00 20.00    +0.293 HD
ENDROOT
TORSDOF 0
                                                                                                    
ENDMDL
MODEL 9
REMARK VINA RESULT:    -9.026      2.852     13.410
REMARK INTER + INTRA:          -9.026
REMARK INTER:                  -9.026
REMARK INTRA:                   0.000
REMARK UNBOUND:                 0.000
ROOT
ATOM      1 N1   LIG A   1      22.189  15.648  12.505  1.00 20.00    -0.330 NA
ATOM      2 C2   LIG A   1      21.284  16.284  11.553  1.00 20.00    -0.008 C 
ATOM      3 C3   LIG A   1      20.006  15.465  11.380  1.00 20.00    -0.040 C 
ATOM      4 C4   LIG A   1      19.042  16.145  10.401  1.00 20.00    -0.039 C 
ATOM      5 C5   LIG A   1      17.713  15.396  10.260  1.00 20.00    -0.005 C 
ATOM      6 N6   LIG A   1      17.917  14.069   9.678  1.00 20.00    -0.317 NA
ATOM      7 C7   LIG A   1      16.658  13.327   9.597  1.00 20.00    -0.003 C 
ATOM      8 C8   LIG A   1      16.911  11.947   8.986  1.00 20.00    -0.023 C 
ATOM      9 C9   LIG A   1      15.670  11.055   9.022  1.00 20.00    +0.016 C 
ATOM     10 N10  LIG A   1      14.584  11.556   8.188  1.00 20.00    -0.385 NA
ATOM     11 C11  LIG A   1      14.590  11.489   6.801  1.00 20.00    +0.034 A 
ATOM     12 C12  LIG A   1      15.462  10.689   6.059  1.00 20.00    -0.038 A 
ATOM     13 C13  LIG A   1      15.366  10.603   4.661  1.00 20.00    -0.049 A 
ATOM     14 C14  LIG A   1      14.372  11.294   3.960  1.00 20.00    +0.017 A 
ATOM     15 C15  LIG A   1      14.262  11.179   2.507  1.00 20.00    +0.134 A 
ATOM     16 C16  LIG A   1      14.996  10.537   1.530  1.00 20.00    -0.015 A 
ATOM     17 C17  LIG A   1      14.347  10.790   0.296  1.00 20.00    -0.015 A 
ATOM     18 C18  LIG A   1      13.247  11.576   0.580  1.00 20.00    +0.134 A 
ATOM     19 C19  LIG A   1      12.172  12.158  -0.218  1.00 20.00    +0.017 A 
ATOM     20 C20  LIG A   1      12.022  11.825  -1.570  1.00 20.00    -0.049 A 
ATOM     21 C21  LIG A   1      10.981  12.368  -2.339  1.00 20.00    -0.038 A 
ATOM     22 C22  LIG A   1      10.077  13.284  -1.797  1.00 20.00    +0.034 A 
ATOM     23 N23  LIG A   1       8.982  13.799  -2.481  1.00 20.00    -0.385 NA
ATOM     24 C24  LIG A   1       8.834  13.708  -3.931  1.00 20.00    +0.016 C 
ATOM     25 C25  LIG A   1       8.067  12.443  -4.329  1.00 20.00    -0.023 C 
ATOM     26 C26  LIG A   1       6.603  12.458  -3.880  1.00 20.00    -0.003 C 
ATOM     27 N27  LIG A   1       5.835  13.465  -4.625  1.00 20.00    -0.317 NA
ATOM     28 C28  LIG A   1       4.467  13.606  -4.122  1.00 20.00    -0.005 C 
ATOM     29 C29  LIG A   1       4.364  14.345  -2.780  1.00 20.00    -0.039 C 
ATOM     30 C30  LIG A   1       4.961  15.757  -2.832  1.00 20.00    -0.040 C 
ATOM     31 C31  LIG A   1       4.915  16.489  -1.489  1.00 20.00    -0.008 C 
ATOM     32 N32  LIG A   1       3.558  16.761  -1.027  1.00 20.00    -0.330 NA
ATOM     33 C33  LIG A   1      10.216  13.593  -0.438  1.00 20.00    -0.038 A 
ATOM     34 C34  LIG A   1      11.249  13.050   0.337  1.00 20.00    -0.049 A 
ATOM     35 O35  LIG A   1      13.204  11.818   1.924  1.00 20.00    -0.456 OA
ATOM     36 C36  LIG A   1      13.478  12.075   4.700  1.00 20.00    -0.049 A 
ATOM     37 C37  LIG A   1      13.583  12.160   6.096  1.00 20.00    -0.038 A 
ATOM     38 O38  LIG A   1      10.164  13.327   2.745  1.00 20.00    -0.504 OA
ATOM     39 C39  LIG A   1      11.516  13.294   2.952  1.00 20.00    +0.157 A 
ATOM     40 C40  LIG A   1      12.083  12.544   3.976  1.00 20.00    -0.016 A 
ATOM     41 C41  LIG A   1      13.471  12.551   4.136  1.00 20.00    -0.058 A 
ATOM     42 C42  LIG A   1      14.278  13.303   3.275  1.00 20.00    -0.058 A 
ATOM     43 C43  LIG A   1      13.700  14.053   2.249  1.00 20.00    -0.016 A 
ATOM     44 C44  LIG A   1      12.322  14.041   2.096  1.00 20.00    +0.157 A 
ATOM     45 O45  LIG A   1      11.754  14.774   1.093  1.00 20.00    -0.504 OA
ATOM     46 H46  LIG A   1      21.710  15.523  13.396  1.00 20.00    +0.118 HD
ATOM     47 H47  LIG A   1      22.413  14.708  12.179  1.00 20.00    +0.118 HD
ATOM     48 H48  LIG A   1      21.799  16.393  10.593  1.00 20.00    +0.043 H 
ATOM     49 H49  LIG A   1      21.045  17.291  11.912  1.00 20.00    +0.043 H 
ATOM     50 H50  LIG A   1      19.510  15.342  12.352  1.00 20.00    +0.028 H 
ATOM     51 H51  LIG A   1      20.262  14.462  11.018  1.00 20.00    +0.028 H 
ATOM     52 H52  LIG A   1      18.828  17.161  10.755  1.00 20.00    +0.028 H 
ATOM     53 H53  LIG A   1      19.521  16.246   9.419  1.00 20.00    +0.028 H 
ATOM     54 H54  LIG A   1      17.044  15.986   9.621  1.00 20.00    +0.043 H 
ATOM     55 H55  LIG A   1      17.244  15.310  11.247  1.00 20.00    +0.043 H 
ATOM     56 H56  LIG A   1      18.314  14.167   8.742  1.00 20.00    +0.122 HD
ATOM     57 H57  LIG A   1      15.934  13.879   8.986  1.00 20.00    +0.043 H 
ATOM     58 H58  LIG A   1      16.235  13.207  10.603  1.00 20.00    +0.043 H 
ATOM     59 H59  LIG A   1      17.279  12.058   7.960  1.00 20.00    +0.030 H 
ATOM     60 H60  LIG A   1      17.704  11.442   9.554  1.00 20.00    +0.030 H 
ATOM     61 H61  LIG A   1      15.932  10.029   8.742  1.00 20.00    +0.049 H 
ATOM     62 H62  LIG A   1      15.300  10.992  10.052  1.00 20.00    +0.049 H 
ATOM     63 H63  LIG A   1      14.112  12.376   8.556  1.00 20.00    +0.160 HD
ATOM     64 H64  LIG A   1      16.238  10.108   6.547  1.00 20.00    +0.064 H 
ATOM     65 H65  LIG A   1      16.077   9.969   4.136  1.00 20.00    +0.063 H 
ATOM     66 H66  LIG A   1      15.890   9.949   1.683  1.00 20.00    +0.066 H 
ATOM     67 H67  LIG A   1      14.646  10.434  -0.678  1.00 20.00    +0.066 H 
ATOM     68 H68  LIG A   1      12.701  11.122  -2.046  1.00 20.00    +0.063 H 
ATOM     69 H69  LIG A   1      10.899  12.047  -3.372  1.00 20.00    +0.064 H 
ATOM     70 H70  LIG A   1       8.653  14.683  -2.103  1.00 20.00    +0.160 HD
ATOM     71 H71  LIG A   1       8.293  14.595  -4.280  1.00 20.00    +0.049 H 
ATOM     72 H72  LIG A   1       9.808  13.741  -4.432  1.00 20.00    +0.049 H 
ATOM     73 H73  LIG A   1       8.115  12.326  -5.419  1.00 20.00    +0.030 H 
ATOM     74 H74  LIG A   1       8.550  11.558  -3.901  1.00 20.00    +0.030 H 
ATOM     75 H75  LIG A   1       6.167  11.468  -4.061  1.00 20.00    +0.043 H 
ATOM     76 H76  LIG A   1       6.561  12.638  -2.802  1.00 20.00    +0.043 H 
ATOM     77 H77  LIG A   1       5.793  13.177  -5.604  1.00 20.00    +0.122 HD
ATOM     78 H78  LIG A   1       3.895  14.174  -4.866  1.00 20.00    +0.043 H 
ATOM     79 H79  LIG A   1       3.982  12.626  -4.046  1.00 20.00    +0.043 H 
ATOM     80 H80  LIG A   1       4.848  13.767  -1.985  1.00 20.00    +0.028 H 
ATOM     81 H81  LIG A   1       3.301  14.403  -2.514  1.00 20.00    +0.028 H 
ATOM     82 H82  LIG A   1       4.438  16.348  -3.595  1.00 20.00    +0.028 H 
ATOM     83 H83  LIG A   1       6.011  15.702  -3.143  1.00 20.00    +0.028 H 
ATOM     84 H84  LIG A   1       5.447  15.912  -0.724  1.00 20.00    +0.043 H 
ATOM     85 H85  LIG A   1       5.441  17.445  -1.587  1.00 20.00    +0.043 H 
ATOM     86 H86  LIG A   1       3.033  17.224  -1.767  1.00 20.00    +0.118 HD
ATOM     87 H87  LIG A   1       3.074  15.884  -0.840  1.00 20.00    +0.118 HD
ATOM     88 H88  LIG A   1       9.507  14.263   0.041  1.00 20.00    +0.064 H 
ATOM     89 H89  LIG A   1      11.317  13.329   1.387  1.00 20.00    +0.063 H 
ATOM     90 H90  LIG A   1      12.677  12.617   4.204  1.00 20.00    +0.063 H 
ATOM     91 H91  LIG A   1      12.848  12.757   6.631  1.00 20.00    +0.064 H 
ATOM     92 H92  LIG A   1       9.744  12.756   3.411  1.00 20.00    +0.293 HD
ATOM     93 H93  LIG A   1      11.472  11.956   4.654  1.00 20.00    +0.066 H 
ATOM     94 H94  LIG A   1      13.929  11.970   4.933  1.00 20.00    +0.062 H 
ATOM     95 H95  LIG A   1      15.357  13.305   3.403  1.00 20.00    +0.062 H 
ATOM     96 H96  LIG A   1      14.318  14.640   1.576  1.00 20.00    +0.066 H 
ATOM     97 H97  LIG A   1      10.795  14.610   1.186  1.00 20.00    +0.293 HD
ENDROOT
TORSDOF 0
                                                                                                    
ENDMDL
