ROOT
ATOM      1 C1   LIG A   1      -4.910  -0.997   1.144  1.00 20.00    -0.056 C 
ATOM      2 C2   LIG A   1      -4.841  -0.656  -0.335  1.00 20.00    -0.002 C 
ATOM      3 S3   LIG A   1      -3.178  -0.955  -0.999  1.00 20.00    -0.087 SA
ATOM      4 C4   LIG A   1      -2.356   0.513  -0.473  1.00 20.00    +0.205 C 
ATOM      5 O5   LIG A   1      -2.958   1.456   0.034  1.00 20.00    -0.285 OA
ATOM      6 C6   LIG A   1      -0.836   0.532  -0.725  1.00 20.00    +0.074 C 
ATOM      7 N7   LIG A   1      -0.460   1.839  -1.315  1.00 20.00    -0.321 NA
ATOM      8 C8   LIG A   1      -0.106   0.316   0.609  1.00 20.00    -0.028 C 
ATOM      9 C9   LIG A   1       1.356  -0.129   0.486  1.00 20.00    -0.034 C 
ATOM     10 C10  LIG A   1       2.251   0.813  -0.321  1.00 20.00    +0.018 C 
ATOM     11 N11  LIG A   1       3.659   0.491  -0.118  1.00 20.00    -0.357 NA
ATOM     12 C12  LIG A   1       4.240  -0.591  -0.686  1.00 20.00    +0.185 C 
ATOM     13 N13  LIG A   1       3.680  -1.388  -1.518  1.00 20.00    -0.270 NA
ATOM     14 N14  LIG A   1       5.520  -0.721  -0.280  1.00 20.00    -0.370 NA
ATOM     15 N15  LIG A   1      -7.313  -1.339  -3.059  1.00 20.00    -0.289 NA
ATOM     16 C16  LIG A   1      -8.328  -0.849  -2.430  1.00 20.00    +0.092 C 
ATOM     17 N17  LIG A   1      -8.509   0.497  -2.312  1.00 20.00    -0.388 NA
ATOM     18 C18  LIG A   1      -9.331  -1.809  -1.821  1.00 20.00    +0.022 C 
ATOM     19 C19  LIG A   1      -9.335  -1.786  -0.295  1.00 20.00    +0.022 C 
ATOM     20 N20  LIG A   1      -8.048  -2.210   0.272  1.00 20.00    -0.384 NA
ATOM     21 C21  LIG A   1      -7.172  -1.193   0.680  1.00 20.00    +0.038 A 
ATOM     22 C22  LIG A   1      -7.572  -0.196   1.581  1.00 20.00    -0.038 A 
ATOM     23 C23  LIG A   1      -6.691   0.815   1.973  1.00 20.00    -0.045 A 
ATOM     24 C24  LIG A   1      -5.389   0.824   1.470  1.00 20.00    +0.065 A 
ATOM     25 C25  LIG A   1      -4.441   1.879   1.852  1.00 20.00    +0.193 C 
ATOM     26 O26  LIG A   1      -4.751   2.801   2.595  1.00 20.00    -0.289 OA
ATOM     27 C27  LIG A   1      -3.086   1.778   1.287  1.00 20.00    +0.030 C 
ATOM     28 C28  LIG A   1      -2.794   0.762   0.462  1.00 20.00    +0.138 C 
ATOM     29 C29  LIG A   1      -1.451   0.611  -0.127  1.00 20.00    +0.017 A 
ATOM     30 C30  LIG A   1      -1.303   0.277  -1.476  1.00 20.00    -0.049 A 
ATOM     31 C31  LIG A   1      -0.028   0.121  -2.037  1.00 20.00    -0.038 A 
ATOM     32 C32  LIG A   1       1.136   0.310  -1.281  1.00 20.00    +0.034 A 
ATOM     33 N33  LIG A   1       2.369   0.067  -1.885  1.00 20.00    -0.385 NA
ATOM     34 C34  LIG A   1       3.627   0.486  -1.270  1.00 20.00    +0.016 C 
ATOM     35 C35  LIG A   1       4.218  -0.661  -0.449  1.00 20.00    -0.023 C 
ATOM     36 C36  LIG A   1       5.424  -0.228   0.386  1.00 20.00    -0.003 C 
ATOM     37 N37  LIG A   1       6.523   0.232  -0.462  1.00 20.00    -0.317 NA
ATOM     38 C38  LIG A   1       7.623   0.829   0.298  1.00 20.00    -0.005 C 
ATOM     39 C39  LIG A   1       8.460  -0.197   1.071  1.00 20.00    -0.039 C 
ATOM     40 C40  LIG A   1       9.609   0.440   1.862  1.00 20.00    -0.040 C 
ATOM     41 C41  LIG A   1      10.702   1.034   0.973  1.00 20.00    -0.008 C 
ATOM     42 N42  LIG A   1      11.791   1.572   1.780  1.00 20.00    -0.330 NA
ATOM     43 C43  LIG A   1       0.977   0.595   0.077  1.00 20.00    -0.038 A 
ATOM     44 C44  LIG A   1      -0.294   0.758   0.646  1.00 20.00    -0.049 A 
ATOM     45 O45  LIG A   1      -3.698  -0.214   0.075  1.00 20.00    -0.456 OA
ATOM     46 C46  LIG A   1      -4.967  -0.171   0.596  1.00 20.00    +0.140 A 
ATOM     47 C47  LIG A   1      -5.851  -1.179   0.210  1.00 20.00    +0.005 A 
ATOM     48 H48  LIG A   1      -5.930  -0.841   1.513  1.00 20.00    +0.024 H 
ATOM     49 H49  LIG A   1      -4.652  -2.047   1.322  1.00 20.00    +0.024 H 
ATOM     50 H50  LIG A   1      -4.243  -0.367   1.742  1.00 20.00    +0.024 H 
ATOM     51 H51  LIG A   1      -5.537  -1.299  -0.884  1.00 20.00    +0.038 H 
ATOM     52 H52  LIG A   1      -5.155   0.378  -0.514  1.00 20.00    +0.038 H 
ATOM     53 H53  LIG A   1      -0.564  -0.254  -1.438  1.00 20.00    +0.055 H 
ATOM     54 H54  LIG A   1      -0.910   1.926  -2.228  1.00 20.00    +0.119 HD
ATOM     55 H55  LIG A   1      -0.886   2.577  -0.744  1.00 20.00    +0.119 HD
ATOM     56 H56  LIG A   1      -0.154   1.230   1.217  1.00 20.00    +0.029 H 
ATOM     57 H57  LIG A   1      -0.634  -0.449   1.194  1.00 20.00    +0.029 H 
ATOM     58 H58  LIG A   1       1.761  -0.228   1.503  1.00 20.00    +0.029 H 
ATOM     59 H59  LIG A   1       1.387  -1.136   0.051  1.00 20.00    +0.029 H 
ATOM     60 H60  LIG A   1       2.098   1.845   0.012  1.00 20.00    +0.049 H 
ATOM     61 H61  LIG A   1       2.012   0.774  -1.389  1.00 20.00    +0.049 H 
ATOM     62 H62  LIG A   1       3.966   0.650   0.832  1.00 20.00    +0.163 HD
ATOM     63 H63  LIG A   1       4.332  -2.127  -1.781  1.00 20.00    +0.191 HD
ATOM     64 H64  LIG A   1       6.074  -1.336  -0.861  1.00 20.00    +0.159 HD
ATOM     65 H65  LIG A   1       5.976   0.180  -0.189  1.00 20.00    +0.159 HD
ATOM     66 H66  LIG A   1      -6.747  -0.579  -3.443  1.00 20.00    +0.189 HD
ATOM     67 H67  LIG A   1      -7.670   1.059  -2.397  1.00 20.00    +0.157 HD
ATOM     68 H68  LIG A   1      -9.098   0.814  -1.550  1.00 20.00    +0.157 HD
ATOM     69 H69  LIG A   1      -9.114  -2.823  -2.179  1.00 20.00    +0.037 H 
ATOM     70 H70  LIG A   1     -10.327  -1.538  -2.192  1.00 20.00    +0.037 H 
ATOM     71 H71  LIG A   1      -9.654  -0.804   0.070  1.00 20.00    +0.049 H 
ATOM     72 H72  LIG A   1     -10.091  -2.499   0.053  1.00 20.00    +0.049 H 
ATOM     73 H73  LIG A   1      -7.579  -2.876  -0.345  1.00 20.00    +0.160 HD
ATOM     74 H74  LIG A   1      -8.571  -0.214   2.009  1.00 20.00    +0.064 H 
ATOM     75 H75  LIG A   1      -7.016   1.580   2.674  1.00 20.00    +0.063 H 
ATOM     76 H76  LIG A   1      -2.383   2.551   1.569  1.00 20.00    +0.070 H 
ATOM     77 H77  LIG A   1      -2.175   0.132  -2.108  1.00 20.00    +0.063 H 
ATOM     78 H78  LIG A   1       0.046  -0.159  -3.086  1.00 20.00    +0.064 H 
ATOM     79 H79  LIG A   1       2.352   0.205  -2.893  1.00 20.00    +0.160 HD
ATOM     80 H80  LIG A   1       4.323   0.747  -2.075  1.00 20.00    +0.049 H 
ATOM     81 H81  LIG A   1       3.501   1.395  -0.671  1.00 20.00    +0.049 H 
ATOM     82 H82  LIG A   1       4.497  -1.489  -1.115  1.00 20.00    +0.030 H 
ATOM     83 H83  LIG A   1       3.459  -1.066   0.234  1.00 20.00    +0.030 H 
ATOM     84 H84  LIG A   1       5.746  -1.083   0.990  1.00 20.00    +0.043 H 
ATOM     85 H85  LIG A   1       5.112   0.565   1.075  1.00 20.00    +0.043 H 
ATOM     86 H86  LIG A   1       6.873  -0.550  -1.018  1.00 20.00    +0.122 HD
ATOM     87 H87  LIG A   1       8.261   1.345  -0.426  1.00 20.00    +0.043 H 
ATOM     88 H88  LIG A   1       7.241   1.602   0.975  1.00 20.00    +0.043 H 
ATOM     89 H89  LIG A   1       7.822  -0.726   1.789  1.00 20.00    +0.028 H 
ATOM     90 H90  LIG A   1       8.860  -0.953   0.385  1.00 20.00    +0.028 H 
ATOM     91 H91  LIG A   1      10.049  -0.336   2.501  1.00 20.00    +0.028 H 
ATOM     92 H92  LIG A   1       9.206   1.210   2.531  1.00 20.00    +0.028 H 
ATOM     93 H93  LIG A   1      10.305   1.841   0.349  1.00 20.00    +0.043 H 
ATOM     94 H94  LIG A   1      11.103   0.267   0.302  1.00 20.00    +0.043 H 
ATOM     95 H95  LIG A   1      11.435   2.302   2.399  1.00 20.00    +0.118 HD
ATOM     96 H96  LIG A   1      12.162   0.845   2.391  1.00 20.00    +0.118 HD
ATOM     97 H97  LIG A   1       1.837   0.694   0.731  1.00 20.00    +0.064 H 
ATOM     98 H98  LIG A   1      -0.360   0.980   1.709  1.00 20.00    +0.063 H 
ATOM     99 H99  LIG A   1      -5.509  -1.946  -0.482  1.00 20.00    +0.068 H 
ENDROOT
TORSDOF 0
