ROOT
ATOM      1 C1   LIG A   1      -2.381  -1.123   0.935  1.00 20.00    -0.044 C 
ATOM      2 C2   LIG A   1      -1.204  -0.542   0.099  1.00 20.00    +0.047 C 
ATOM      3 C3   LIG A   1      -1.334  -1.124  -1.331  1.00 20.00    -0.044 C 
ATOM      4 C4   LIG A   1      -1.441   0.999   0.049  1.00 20.00    -0.006 C 
ATOM      5 C5   LIG A   1      -0.165   1.835   0.134  1.00 20.00    +0.058 C 
ATOM      6 O6   LIG A   1      -0.387   3.115  -0.475  1.00 20.00    -0.393 OA
ATOM      7 C7   LIG A   1       0.996   1.138  -0.548  1.00 20.00    -0.006 C 
ATOM      8 C8   LIG A   1       1.324  -0.209   0.151  1.00 20.00    +0.047 C 
ATOM      9 C9   LIG A   1       2.087  -1.084  -0.878  1.00 20.00    -0.044 C 
ATOM     10 C10  LIG A   1       2.304   0.091   1.319  1.00 20.00    -0.044 C 
ATOM     11 N11  LIG A   1       0.097  -0.795   0.756  1.00 20.00    -0.144 NA
ATOM     12 O12  LIG A   1       0.283  -2.193   1.021  1.00 20.00    -0.120 OA
ATOM     13 N13  LIG A   1     -14.192   0.862  -1.636  1.00 20.00    -0.330 NA
ATOM     14 C14  LIG A   1     -12.980   1.274  -2.336  1.00 20.00    -0.008 C 
ATOM     15 C15  LIG A   1     -11.838   0.289  -2.086  1.00 20.00    -0.040 C 
ATOM     16 C16  LIG A   1     -10.563   0.727  -2.814  1.00 20.00    -0.039 C 
ATOM     17 C17  LIG A   1      -9.411  -0.271  -2.653  1.00 20.00    -0.005 C 
ATOM     18 N18  LIG A   1      -9.001  -0.382  -1.253  1.00 20.00    -0.317 NA
ATOM     19 C19  LIG A   1      -7.914  -1.355  -1.099  1.00 20.00    -0.003 C 
ATOM     20 C20  LIG A   1      -7.519  -1.457   0.376  1.00 20.00    -0.023 C 
ATOM     21 C21  LIG A   1      -6.481  -2.554   0.618  1.00 20.00    +0.016 C 
ATOM     22 N22  LIG A   1      -5.214  -2.251  -0.039  1.00 20.00    -0.385 NA
ATOM     23 C23  LIG A   1      -4.183  -1.593   0.635  1.00 20.00    +0.034 A 
ATOM     24 C24  LIG A   1      -4.365  -0.818   1.783  1.00 20.00    -0.038 A 
ATOM     25 C25  LIG A   1      -3.294  -0.134   2.380  1.00 20.00    -0.049 A 
ATOM     26 C26  LIG A   1      -2.009  -0.179   1.828  1.00 20.00    +0.017 A 
ATOM     27 C27  LIG A   1      -0.897   0.525   2.462  1.00 20.00    +0.134 A 
ATOM     28 C28  LIG A   1      -0.755   1.278   3.611  1.00 20.00    -0.015 A 
ATOM     29 C29  LIG A   1       0.603   1.679   3.672  1.00 20.00    -0.015 A 
ATOM     30 C30  LIG A   1       1.223   1.157   2.556  1.00 20.00    +0.134 A 
ATOM     31 C31  LIG A   1       2.586   1.191   2.033  1.00 20.00    +0.017 A 
ATOM     32 C32  LIG A   1       3.644   1.659   2.820  1.00 20.00    -0.049 A 
ATOM     33 C33  LIG A   1       4.957   1.694   2.323  1.00 20.00    -0.038 A 
ATOM     34 C34  LIG A   1       5.252   1.294   1.018  1.00 20.00    +0.034 A 
ATOM     35 N35  LIG A   1       6.539   1.241   0.490  1.00 20.00    -0.385 NA
ATOM     36 C36  LIG A   1       7.669   1.939   1.096  1.00 20.00    +0.016 C 
ATOM     37 C37  LIG A   1       8.415   1.031   2.075  1.00 20.00    -0.023 C 
ATOM     38 C38  LIG A   1       9.162  -0.116   1.387  1.00 20.00    -0.003 C 
ATOM     39 N39  LIG A   1      10.310   0.392   0.624  1.00 20.00    -0.317 NA
ATOM     40 C40  LIG A   1      10.978  -0.663  -0.141  1.00 20.00    -0.005 C 
ATOM     41 C41  LIG A   1      10.219  -1.100  -1.401  1.00 20.00    -0.039 C 
ATOM     42 C42  LIG A   1       9.979   0.054  -2.382  1.00 20.00    -0.040 C 
ATOM     43 C43  LIG A   1       9.175  -0.355  -3.618  1.00 20.00    -0.008 C 
ATOM     44 N44  LIG A   1       9.871  -1.318  -4.465  1.00 20.00    -0.330 NA
ATOM     45 C45  LIG A   1       4.195   0.792   0.248  1.00 20.00    -0.038 A 
ATOM     46 C46  LIG A   1       2.883   0.750   0.739  1.00 20.00    -0.049 A 
ATOM     47 O47  LIG A   1       0.309   0.457   1.820  1.00 20.00    -0.456 OA
ATOM     48 C48  LIG A   1      -1.833  -0.916   0.652  1.00 20.00    -0.049 A 
ATOM     49 C49  LIG A   1      -2.905  -1.597   0.062  1.00 20.00    -0.038 A 
ATOM     50 H50  LIG A   1      -3.346  -0.788   0.535  1.00 20.00    +0.025 H 
ATOM     51 H51  LIG A   1      -2.328  -0.793   1.980  1.00 20.00    +0.025 H 
ATOM     52 H52  LIG A   1      -2.397  -2.219   0.926  1.00 20.00    +0.025 H 
ATOM     53 H53  LIG A   1      -1.157  -2.205  -1.350  1.00 20.00    +0.025 H 
ATOM     54 H54  LIG A   1      -2.346  -0.962  -1.722  1.00 20.00    +0.025 H 
ATOM     55 H55  LIG A   1      -0.649  -0.656  -2.041  1.00 20.00    +0.025 H 
ATOM     56 H56  LIG A   1      -2.000   1.266  -0.859  1.00 20.00    +0.031 H 
ATOM     57 H57  LIG A   1      -2.085   1.324   0.878  1.00 20.00    +0.031 H 
ATOM     58 H58  LIG A   1       0.083   2.030   1.184  1.00 20.00    +0.060 H 
ATOM     59 H59  LIG A   1      -1.148   3.498  -0.008  1.00 20.00    +0.210 HD
ATOM     60 H60  LIG A   1       0.748   0.992  -1.607  1.00 20.00    +0.031 H 
ATOM     61 H61  LIG A   1       1.871   1.802  -0.558  1.00 20.00    +0.031 H 
ATOM     62 H62  LIG A   1       2.927  -0.525  -1.310  1.00 20.00    +0.025 H 
ATOM     63 H63  LIG A   1       2.514  -1.985  -0.423  1.00 20.00    +0.025 H 
ATOM     64 H64  LIG A   1       1.449  -1.397  -1.709  1.00 20.00    +0.025 H 
ATOM     65 H65  LIG A   1       3.205   0.600   0.957  1.00 20.00    +0.025 H 
ATOM     66 H66  LIG A   1       2.634  -0.827   1.819  1.00 20.00    +0.025 H 
ATOM     67 H67  LIG A   1       1.846   0.735   2.077  1.00 20.00    +0.025 H 
ATOM     68 H68  LIG A   1     -14.445  -0.083  -1.925  1.00 20.00    +0.118 HD
ATOM     69 H69  LIG A   1     -13.998   0.799  -0.636  1.00 20.00    +0.118 HD
ATOM     70 H70  LIG A   1     -12.698   2.277  -1.997  1.00 20.00    +0.043 H 
ATOM     71 H71  LIG A   1     -13.195   1.340  -3.408  1.00 20.00    +0.043 H 
ATOM     72 H72  LIG A   1     -12.130  -0.711  -2.431  1.00 20.00    +0.028 H 
ATOM     73 H73  LIG A   1     -11.648   0.217  -1.008  1.00 20.00    +0.028 H 
ATOM     74 H74  LIG A   1     -10.777   0.836  -3.884  1.00 20.00    +0.028 H 
ATOM     75 H75  LIG A   1     -10.251   1.715  -2.453  1.00 20.00    +0.028 H 
ATOM     76 H76  LIG A   1      -8.566   0.068  -3.265  1.00 20.00    +0.043 H 
ATOM     77 H77  LIG A   1      -9.729  -1.248  -3.034  1.00 20.00    +0.043 H 
ATOM     78 H78  LIG A   1      -8.680   0.529  -0.923  1.00 20.00    +0.122 HD
ATOM     79 H79  LIG A   1      -7.049  -1.050  -1.700  1.00 20.00    +0.043 H 
ATOM     80 H80  LIG A   1      -8.247  -2.338  -1.454  1.00 20.00    +0.043 H 
ATOM     81 H81  LIG A   1      -7.146  -0.487   0.725  1.00 20.00    +0.030 H 
ATOM     82 H82  LIG A   1      -8.409  -1.691   0.975  1.00 20.00    +0.030 H 
ATOM     83 H83  LIG A   1      -6.346  -2.730   1.692  1.00 20.00    +0.049 H 
ATOM     84 H84  LIG A   1      -6.862  -3.498   0.209  1.00 20.00    +0.049 H 
ATOM     85 H85  LIG A   1      -4.857  -3.037  -0.580  1.00 20.00    +0.160 HD
ATOM     86 H86  LIG A   1      -5.341  -0.727   2.248  1.00 20.00    +0.064 H 
ATOM     87 H87  LIG A   1      -3.491   0.440   3.282  1.00 20.00    +0.063 H 
ATOM     88 H88  LIG A   1      -1.532   1.509   4.324  1.00 20.00    +0.066 H 
ATOM     89 H89  LIG A   1       1.068   2.281   4.440  1.00 20.00    +0.066 H 
ATOM     90 H90  LIG A   1       3.471   1.993   3.839  1.00 20.00    +0.063 H 
ATOM     91 H91  LIG A   1       5.738   2.043   2.991  1.00 20.00    +0.064 H 
ATOM     92 H92  LIG A   1       6.550   1.280  -0.527  1.00 20.00    +0.160 HD
ATOM     93 H93  LIG A   1       8.345   2.264   0.298  1.00 20.00    +0.049 H 
ATOM     94 H94  LIG A   1       7.344   2.859   1.597  1.00 20.00    +0.049 H 
ATOM     95 H95  LIG A   1       9.126   1.636   2.652  1.00 20.00    +0.030 H 
ATOM     96 H96  LIG A   1       7.715   0.601   2.801  1.00 20.00    +0.030 H 
ATOM     97 H97  LIG A   1       9.521  -0.811   2.156  1.00 20.00    +0.043 H 
ATOM     98 H98  LIG A   1       8.467  -0.666   0.746  1.00 20.00    +0.043 H 
ATOM     99 H99  LIG A   1      10.981   0.791   1.281  1.00 20.00    +0.122 HD
ATOM    100 H100 LIG A   1      11.959  -0.281  -0.451  1.00 20.00    +0.043 H 
ATOM    101 H101 LIG A   1      11.178  -1.533   0.497  1.00 20.00    +0.043 H 
ATOM    102 H102 LIG A   1       9.262  -1.561  -1.131  1.00 20.00    +0.028 H 
ATOM    103 H103 LIG A   1      10.811  -1.882  -1.891  1.00 20.00    +0.028 H 
ATOM    104 H104 LIG A   1      10.942   0.481  -2.690  1.00 20.00    +0.028 H 
ATOM    105 H105 LIG A   1       9.427   0.857  -1.879  1.00 20.00    +0.028 H 
ATOM    106 H106 LIG A   1       8.206  -0.771  -3.319  1.00 20.00    +0.043 H 
ATOM    107 H107 LIG A   1       8.966   0.539  -4.216  1.00 20.00    +0.043 H 
ATOM    108 H108 LIG A   1      10.800  -0.966  -4.689  1.00 20.00    +0.118 HD
ATOM    109 H109 LIG A   1      10.010  -2.190  -3.958  1.00 20.00    +0.118 HD
ATOM    110 H110 LIG A   1       4.384   0.421  -0.756  1.00 20.00    +0.064 H 
ATOM    111 H111 LIG A   1       2.097   0.366   0.094  1.00 20.00    +0.063 H 
ATOM    112 H112 LIG A   1      -0.856  -0.967   0.175  1.00 20.00    +0.063 H 
ATOM    113 H113 LIG A   1      -2.725  -2.140  -0.863  1.00 20.00    +0.064 H 
ENDROOT
TORSDOF 0
