ROOT
ATOM      1 C1   LIG A   1       8.760  -0.240   1.881  1.00 20.00    -0.060 C 
ATOM      2 C2   LIG A   1       7.485  -0.848   1.229  1.00 20.00    -0.016 C 
ATOM      3 C3   LIG A   1       6.548  -1.131   2.439  1.00 20.00    -0.023 C 
ATOM      4 C4   LIG A   1       5.234  -1.513   1.819  1.00 20.00    -0.048 A 
ATOM      5 C5   LIG A   1       4.181  -0.689   2.079  1.00 20.00    -0.058 A 
ATOM      6 C6   LIG A   1       3.121  -0.780   1.174  1.00 20.00    -0.051 A 
ATOM      7 C7   LIG A   1       3.202  -1.613   0.163  1.00 20.00    +0.017 A 
ATOM      8 C8   LIG A   1       4.313  -2.487  -0.072  1.00 20.00    -0.051 A 
ATOM      9 C9   LIG A   1       5.351  -2.416   0.802  1.00 20.00    -0.058 A 
ATOM     10 C10  LIG A   1       2.394  -1.657  -1.096  1.00 20.00    +0.140 C 
ATOM     11 C11  LIG A   1       3.009  -1.463  -2.279  1.00 20.00    +0.047 C 
ATOM     12 C12  LIG A   1       4.395  -1.102  -2.534  1.00 20.00    +0.256 C 
ATOM     13 O13  LIG A   1       5.104  -1.394  -3.509  1.00 20.00    -0.269 OA
ATOM     14 N14  LIG A   1       5.187  -0.195  -1.664  1.00 20.00    -0.278 NA
ATOM     15 C15  LIG A   1       4.778   1.179  -1.829  1.00 20.00    +0.029 C 
ATOM     16 C16  LIG A   1       3.445   1.671  -1.679  1.00 20.00    -0.034 C 
ATOM     17 C17  LIG A   1       2.601   1.721  -0.502  1.00 20.00    -0.034 C 
ATOM     18 C18  LIG A   1       1.169   1.605  -0.550  1.00 20.00    +0.085 C 
ATOM     19 C19  LIG A   1       0.725   2.072   0.885  1.00 20.00    +0.311 C 
ATOM     20 O20  LIG A   1      -0.253   1.481   1.405  1.00 20.00    -0.252 OA
ATOM     21 O21  LIG A   1       1.419   3.086   1.488  1.00 20.00    -0.481 OA
ATOM     22 C22  LIG A   1       0.215   0.557  -0.839  1.00 20.00    +0.009 A 
ATOM     23 C23  LIG A   1      -1.098   1.202  -0.969  1.00 20.00    -0.052 A 
ATOM     24 C24  LIG A   1      -2.262   0.597  -1.220  1.00 20.00    -0.038 A 
ATOM     25 C25  LIG A   1      -2.282  -0.752  -1.378  1.00 20.00    +0.038 A 
ATOM     26 N26  LIG A   1      -3.479  -1.413  -1.616  1.00 20.00    -0.385 NA
ATOM     27 C27  LIG A   1      -4.778  -0.800  -1.619  1.00 20.00    +0.016 C 
ATOM     28 C28  LIG A   1      -5.152  -0.532  -0.189  1.00 20.00    -0.023 C 
ATOM     29 C29  LIG A   1      -6.552   0.088  -0.068  1.00 20.00    -0.003 C 
ATOM     30 N30  LIG A   1      -6.814   0.290   1.304  1.00 20.00    -0.317 NA
ATOM     31 C31  LIG A   1      -8.066   0.805   1.639  1.00 20.00    -0.005 C 
ATOM     32 C32  LIG A   1      -9.218  -0.101   1.536  1.00 20.00    -0.039 C 
ATOM     33 C33  LIG A   1      -9.621  -0.721   0.265  1.00 20.00    -0.040 C 
ATOM     34 C34  LIG A   1      -9.961   0.224  -0.856  1.00 20.00    -0.008 C 
ATOM     35 N35  LIG A   1     -11.062   1.088  -0.523  1.00 20.00    -0.330 NA
ATOM     36 C36  LIG A   1      -1.118  -1.417  -1.272  1.00 20.00    +0.004 A 
ATOM     37 C37  LIG A   1       0.138  -0.775  -1.002  1.00 20.00    +0.133 A 
ATOM     38 O38  LIG A   1       1.085  -1.842  -0.968  1.00 20.00    -0.456 OA
ATOM     39 C39  LIG A   1       6.313  -0.465  -0.909  1.00 20.00    +0.246 C 
ATOM     40 O40  LIG A   1       6.852  -1.530  -1.407  1.00 20.00    -0.273 OA
ATOM     41 C41  LIG A   1       7.018   0.138   0.207  1.00 20.00    +0.088 C 
ATOM     42 N42  LIG A   1       8.174   0.930  -0.259  1.00 20.00    -0.320 NA
ATOM     43 C43  LIG A   1      -1.808   0.349  -0.057  1.00 20.00    +0.000 C 
ATOM     44 C44  LIG A   1      -0.806  -0.762   0.158  1.00 20.00    +0.000 C 
ATOM     45 Se45 LIG A   1       0.797  -0.090   1.019  1.00 20.00    +0.000 Se
ATOM     46 C46  LIG A   1       2.215   0.275  -0.226  1.00 20.00    +0.000 C 
ATOM     47 H47  LIG A   1       9.392   0.066   1.026  1.00 20.00    +0.023 H 
ATOM     48 H48  LIG A   1       9.277  -1.074   2.375  1.00 20.00    +0.023 H 
ATOM     49 H49  LIG A   1       8.527   0.624   2.499  1.00 20.00    +0.023 H 
ATOM     50 H50  LIG A   1       7.790  -1.833   0.866  1.00 20.00    +0.032 H 
ATOM     51 H51  LIG A   1       6.437  -0.238   3.032  1.00 20.00    +0.032 H 
ATOM     52 H52  LIG A   1       6.985  -1.933   3.055  1.00 20.00    +0.032 H 
ATOM     53 H53  LIG A   1       4.166  -0.016   2.920  1.00 20.00    +0.063 H 
ATOM     54 H54  LIG A   1       2.259  -0.216   1.404  1.00 20.00    +0.063 H 
ATOM     55 H55  LIG A   1       4.358  -3.176  -0.879  1.00 20.00    +0.063 H 
ATOM     56 H56  LIG A   1       6.198  -3.072   0.672  1.00 20.00    +0.063 H 
ATOM     57 H57  LIG A   1       2.378  -1.620  -3.154  1.00 20.00    +0.072 H 
ATOM     58 H58  LIG A   1       5.192   1.497  -2.843  1.00 20.00    +0.050 H 
ATOM     59 H59  LIG A   1       5.406   1.821  -1.067  1.00 20.00    +0.050 H 
ATOM     60 H60  LIG A   1       2.797   1.288  -2.583  1.00 20.00    +0.029 H 
ATOM     61 H61  LIG A   1       3.564   2.777  -2.038  1.00 20.00    +0.029 H 
ATOM     62 H62  LIG A   1       3.137   1.535   0.466  1.00 20.00    +0.028 H 
ATOM     63 H63  LIG A   1       2.654   2.961  -0.271  1.00 20.00    +0.028 H 
ATOM     64 H64  LIG A   1       0.843   2.497  -1.242  1.00 20.00    +0.047 H 
ATOM     65 H65  LIG A   1       0.889   3.699   2.109  1.00 20.00    +0.296 HD
ATOM     66 H66  LIG A   1      -1.137   2.295  -0.836  1.00 20.00    +0.063 H 
ATOM     67 H67  LIG A   1      -3.194   1.155  -1.311  1.00 20.00    +0.064 H 
ATOM     68 H68  LIG A   1      -3.441  -2.457  -1.812  1.00 20.00    +0.160 HD
ATOM     69 H69  LIG A   1      -5.508  -1.502  -2.047  1.00 20.00    +0.049 H 
ATOM     70 H70  LIG A   1      -4.803   0.127  -2.237  1.00 20.00    +0.049 H 
ATOM     71 H71  LIG A   1      -4.467   0.120   0.365  1.00 20.00    +0.030 H 
ATOM     72 H72  LIG A   1      -5.172  -1.492   0.401  1.00 20.00    +0.030 H 
ATOM     73 H73  LIG A   1      -6.484   1.074  -0.637  1.00 20.00    +0.043 H 
ATOM     74 H74  LIG A   1      -7.212  -0.560  -0.638  1.00 20.00    +0.043 H 
ATOM     75 H75  LIG A   1      -6.013   0.459   1.916  1.00 20.00    +0.122 HD
ATOM     76 H76  LIG A   1      -8.212   1.743   1.007  1.00 20.00    +0.043 H 
ATOM     77 H77  LIG A   1      -7.990   1.220   2.707  1.00 20.00    +0.043 H 
ATOM     78 H78  LIG A   1     -10.115   0.442   1.975  1.00 20.00    +0.028 H 
ATOM     79 H79  LIG A   1      -9.111  -0.970   2.282  1.00 20.00    +0.028 H 
ATOM     80 H80  LIG A   1     -10.664  -1.202   0.495  1.00 20.00    +0.028 H 
ATOM     81 H81  LIG A   1      -9.060  -1.578  -0.097  1.00 20.00    +0.028 H 
ATOM     82 H82  LIG A   1     -10.308  -0.426  -1.708  1.00 20.00    +0.043 H 
ATOM     83 H83  LIG A   1      -9.089   0.776  -1.259  1.00 20.00    +0.043 H 
ATOM     84 H84  LIG A   1     -10.802   2.089  -0.584  1.00 20.00    +0.118 HD
ATOM     85 H85  LIG A   1     -11.371   0.877   0.437  1.00 20.00    +0.118 HD
ATOM     86 H86  LIG A   1      -1.146  -2.502  -1.400  1.00 20.00    +0.068 H 
ATOM     87 H87  LIG A   1       6.295   0.850   0.701  1.00 20.00    +0.057 H 
ATOM     88 H88  LIG A   1       7.971   1.331  -1.179  1.00 20.00    +0.119 HD
ATOM     89 H89  LIG A   1       8.284   1.689   0.449  1.00 20.00    +0.119 HD
ATOM     90 H90  LIG A   1      -2.798   0.137   0.393  1.00 20.00    +0.000 H 
ATOM     91 H91  LIG A   1      -1.950   0.487  -1.137  1.00 20.00    +0.000 H 
ATOM     92 H92  LIG A   1      -1.435   1.258   0.454  1.00 20.00    +0.000 H 
ATOM     93 H93  LIG A   1      -1.298  -1.496   0.849  1.00 20.00    +0.000 H 
ATOM     94 H94  LIG A   1      -0.514  -1.258  -0.798  1.00 20.00    +0.000 H 
ATOM     95 H95  LIG A   1       2.364   1.381  -0.271  1.00 20.00    +0.000 H 
ATOM     96 H96  LIG A   1       2.046  -0.122  -1.237  1.00 20.00    +0.000 H 
ATOM     97 H97  LIG A   1       3.188  -0.160   0.119  1.00 20.00    +0.000 H 
ENDROOT
TORSDOF 0
