ROOT
ATOM      1 C1   LIG A   1       4.232  -0.881  -1.472  1.00 20.00    -0.060 C 
ATOM      2 C2   LIG A   1       3.230   0.185  -0.986  1.00 20.00    -0.016 C 
ATOM      3 C3   LIG A   1       2.304   0.596  -2.177  1.00 20.00    -0.023 C 
ATOM      4 C4   LIG A   1       0.958  -0.076  -2.180  1.00 20.00    -0.047 A 
ATOM      5 C5   LIG A   1       0.822  -1.428  -2.471  1.00 20.00    -0.059 A 
ATOM      6 C6   LIG A   1      -0.319  -2.102  -2.052  1.00 20.00    -0.057 A 
ATOM      7 C7   LIG A   1      -1.307  -1.441  -1.288  1.00 20.00    -0.023 A 
ATOM      8 C8   LIG A   1      -1.260  -0.034  -1.189  1.00 20.00    +0.027 A 
ATOM      9 C9   LIG A   1      -0.143   0.637  -1.695  1.00 20.00    -0.048 A 
ATOM     10 C10  LIG A   1      -2.266   0.771  -0.431  1.00 20.00    +0.194 C 
ATOM     11 O11  LIG A   1      -3.427   0.405  -0.305  1.00 20.00    -0.289 OA
ATOM     12 C12  LIG A   1      -1.890   2.066   0.170  1.00 20.00    +0.035 A 
ATOM     13 C13  LIG A   1      -2.398   3.225  -0.433  1.00 20.00    -0.050 A 
ATOM     14 C14  LIG A   1      -2.101   4.477   0.106  1.00 20.00    -0.061 A 
ATOM     15 C15  LIG A   1      -1.320   4.575   1.259  1.00 20.00    -0.061 A 
ATOM     16 C16  LIG A   1      -0.836   3.421   1.878  1.00 20.00    -0.049 A 
ATOM     17 C17  LIG A   1      -1.102   2.162   1.323  1.00 20.00    +0.051 A 
ATOM     18 C18  LIG A   1      -0.678   0.970   2.084  1.00 20.00    +0.261 C 
ATOM     19 O19  LIG A   1      -1.269   0.773   3.146  1.00 20.00    -0.269 OA
ATOM     20 N20  LIG A   1       0.354   0.141   1.600  1.00 20.00    -0.277 NA
ATOM     21 C21  LIG A   1       0.373  -1.203   2.213  1.00 20.00    +0.029 C 
ATOM     22 C22  LIG A   1      -0.324  -2.318   1.410  1.00 20.00    -0.034 C 
ATOM     23 C23  LIG A   1      -1.826  -2.118   1.095  1.00 20.00    -0.034 C 
ATOM     24 C24  LIG A   1      -2.184  -2.331  -0.405  1.00 20.00    +0.082 C 
ATOM     25 C25  LIG A   1      -3.662  -2.260  -0.753  1.00 20.00    +0.310 C 
ATOM     26 O26  LIG A   1      -4.131  -2.144  -1.876  1.00 20.00    -0.252 OA
ATOM     27 O27  LIG A   1      -4.481  -2.451   0.299  1.00 20.00    -0.481 OA
ATOM     28 C28  LIG A   1       1.441   0.676   0.882  1.00 20.00    +0.246 C 
ATOM     29 O29  LIG A   1       1.582   1.890   0.697  1.00 20.00    -0.273 OA
ATOM     30 C30  LIG A   1       2.544  -0.287   0.352  1.00 20.00    +0.088 C 
ATOM     31 N31  LIG A   1       3.605  -0.377   1.391  1.00 20.00    -0.320 NA
ATOM     32 N32  LIG A   1       3.143  -0.772  -0.412  1.00 20.00    -0.328 NA
ATOM     33 C33  LIG A   1       1.775  -0.327  -0.677  1.00 20.00    +0.016 C 
ATOM     34 C34  LIG A   1       1.125   0.366   0.529  1.00 20.00    +0.059 C 
ATOM     35 O35  LIG A   1      -0.149   0.926   0.206  1.00 20.00    -0.378 OA
ATOM     36 C36  LIG A   1      -1.199  -0.038   0.187  1.00 20.00    +0.070 C 
ATOM     37 C37  LIG A   1      -2.515   0.659  -0.147  1.00 20.00    +0.067 C 
ATOM     38 O38  LIG A   1      -3.601  -0.259  -0.103  1.00 20.00    -0.394 OA
ATOM     39 H39  LIG A   1       5.016  -1.063  -0.730  1.00 20.00    +0.023 H 
ATOM     40 H40  LIG A   1       4.733  -0.557  -2.390  1.00 20.00    +0.023 H 
ATOM     41 H41  LIG A   1       3.734  -1.835  -1.674  1.00 20.00    +0.023 H 
ATOM     42 H42  LIG A   1       3.829   1.081  -0.765  1.00 20.00    +0.032 H 
ATOM     43 H43  LIG A   1       2.160   1.684  -2.133  1.00 20.00    +0.032 H 
ATOM     44 H44  LIG A   1       2.796   0.419  -3.142  1.00 20.00    +0.032 H 
ATOM     45 H45  LIG A   1       1.639  -1.988  -2.921  1.00 20.00    +0.063 H 
ATOM     46 H46  LIG A   1      -0.361  -3.182  -2.193  1.00 20.00    +0.063 H 
ATOM     47 H47  LIG A   1      -0.042   1.715  -1.577  1.00 20.00    +0.063 H 
ATOM     48 H48  LIG A   1      -3.034   3.152  -1.313  1.00 20.00    +0.063 H 
ATOM     49 H49  LIG A   1      -2.493   5.377  -0.362  1.00 20.00    +0.062 H 
ATOM     50 H50  LIG A   1      -1.104   5.551   1.688  1.00 20.00    +0.062 H 
ATOM     51 H51  LIG A   1      -0.257   3.502   2.795  1.00 20.00    +0.063 H 
ATOM     52 H52  LIG A   1       1.405  -1.511   2.391  1.00 20.00    +0.050 H 
ATOM     53 H53  LIG A   1      -0.085  -1.170   3.208  1.00 20.00    +0.050 H 
ATOM     54 H54  LIG A   1      -0.235  -3.240   2.001  1.00 20.00    +0.029 H 
ATOM     55 H55  LIG A   1       0.258  -2.518   0.509  1.00 20.00    +0.029 H 
ATOM     56 H56  LIG A   1      -2.182  -1.148   1.446  1.00 20.00    +0.028 H 
ATOM     57 H57  LIG A   1      -2.388  -2.850   1.691  1.00 20.00    +0.028 H 
ATOM     58 H58  LIG A   1      -1.933  -3.381  -0.617  1.00 20.00    +0.047 H 
ATOM     59 H59  LIG A   1      -5.369  -2.273  -0.076  1.00 20.00    +0.296 HD
ATOM     60 H60  LIG A   1       2.125  -1.284   0.199  1.00 20.00    +0.057 H 
ATOM     61 H61  LIG A   1       3.202  -0.539   2.312  1.00 20.00    +0.119 HD
ATOM     62 H62  LIG A   1       4.063   0.536   1.460  1.00 20.00    +0.119 HD
ATOM     63 H63  LIG A   1       3.724   0.032  -0.176  1.00 20.00    +0.118 HD
ATOM     64 H64  LIG A   1       3.158  -1.385   0.402  1.00 20.00    +0.118 HD
ATOM     65 H65  LIG A   1       1.776   0.354  -1.535  1.00 20.00    +0.045 H 
ATOM     66 H66  LIG A   1       1.179  -1.193  -0.981  1.00 20.00    +0.045 H 
ATOM     67 H67  LIG A   1       1.758   1.203   0.847  1.00 20.00    +0.058 H 
ATOM     68 H68  LIG A   1       1.037  -0.315   1.385  1.00 20.00    +0.058 H 
ATOM     69 H69  LIG A   1      -1.001  -0.816  -0.558  1.00 20.00    +0.059 H 
ATOM     70 H70  LIG A   1      -1.277  -0.525   1.166  1.00 20.00    +0.059 H 
ATOM     71 H71  LIG A   1      -2.468   1.093  -1.151  1.00 20.00    +0.059 H 
ATOM     72 H72  LIG A   1      -2.713   1.482   0.549  1.00 20.00    +0.059 H 
ATOM     73 H73  LIG A   1      -3.753  -0.484   0.831  1.00 20.00    +0.210 HD
ENDROOT
TORSDOF 0
