ROOT
ATOM      1 C1   LIG A   1       9.474  -0.685   0.145  1.00 20.00    -0.060 C 
ATOM      2 C2   LIG A   1       8.020  -1.175   0.012  1.00 20.00    -0.016 C 
ATOM      3 C3   LIG A   1       7.626  -1.795   1.398  1.00 20.00    -0.023 C 
ATOM      4 C4   LIG A   1       6.157  -2.084   1.540  1.00 20.00    -0.048 A 
ATOM      5 C5   LIG A   1       5.360  -1.239   2.321  1.00 20.00    -0.058 A 
ATOM      6 C6   LIG A   1       3.999  -1.152   2.061  1.00 20.00    -0.051 A 
ATOM      7 C7   LIG A   1       3.465  -1.855   0.976  1.00 20.00    +0.017 A 
ATOM      8 C8   LIG A   1       4.196  -2.917   0.426  1.00 20.00    -0.051 A 
ATOM      9 C9   LIG A   1       5.552  -3.042   0.723  1.00 20.00    -0.058 A 
ATOM     10 C10  LIG A   1       2.282  -1.327   0.263  1.00 20.00    +0.140 C 
ATOM     11 C11  LIG A   1       2.331  -1.004  -1.050  1.00 20.00    +0.047 C 
ATOM     12 C12  LIG A   1       3.547  -0.760  -1.894  1.00 20.00    +0.256 C 
ATOM     13 O13  LIG A   1       3.435  -0.835  -3.116  1.00 20.00    -0.269 OA
ATOM     14 N14  LIG A   1       4.572  -0.074  -1.248  1.00 20.00    -0.278 NA
ATOM     15 C15  LIG A   1       4.476   1.395  -1.274  1.00 20.00    +0.029 C 
ATOM     16 C16  LIG A   1       3.102   2.019  -0.925  1.00 20.00    -0.034 C 
ATOM     17 C17  LIG A   1       2.784   1.921   0.570  1.00 20.00    -0.034 C 
ATOM     18 C18  LIG A   1       1.307   2.125   0.964  1.00 20.00    +0.085 C 
ATOM     19 C19  LIG A   1       1.222   2.208   2.480  1.00 20.00    +0.311 C 
ATOM     20 O20  LIG A   1       1.610   1.379   3.291  1.00 20.00    -0.252 OA
ATOM     21 O21  LIG A   1       0.655   3.359   2.904  1.00 20.00    -0.481 OA
ATOM     22 C22  LIG A   1       0.235   1.176   0.431  1.00 20.00    +0.009 A 
ATOM     23 C23  LIG A   1      -0.877   1.770  -0.197  1.00 20.00    -0.052 A 
ATOM     24 C24  LIG A   1      -1.972   1.016  -0.645  1.00 20.00    -0.038 A 
ATOM     25 C25  LIG A   1      -2.034  -0.362  -0.445  1.00 20.00    +0.038 A 
ATOM     26 N26  LIG A   1      -3.055  -1.178  -0.919  1.00 20.00    -0.385 NA
ATOM     27 C27  LIG A   1      -4.327  -0.663  -1.413  1.00 20.00    +0.016 C 
ATOM     28 C28  LIG A   1      -5.258  -0.266  -0.267  1.00 20.00    -0.023 C 
ATOM     29 C29  LIG A   1      -6.552   0.346  -0.813  1.00 20.00    -0.003 C 
ATOM     30 N30  LIG A   1      -7.487   0.599   0.286  1.00 20.00    -0.317 NA
ATOM     31 C31  LIG A   1      -8.670   1.340  -0.162  1.00 20.00    -0.005 C 
ATOM     32 C32  LIG A   1      -9.947   0.719   0.428  1.00 20.00    -0.039 C 
ATOM     33 C33  LIG A   1     -10.237  -0.717  -0.039  1.00 20.00    -0.040 C 
ATOM     34 C34  LIG A   1     -10.436  -0.886  -1.548  1.00 20.00    -0.008 C 
ATOM     35 N35  LIG A   1     -11.628  -0.205  -2.042  1.00 20.00    -0.330 NA
ATOM     36 C36  LIG A   1      -0.923  -0.964   0.152  1.00 20.00    +0.004 A 
ATOM     37 C37  LIG A   1       0.196  -0.222   0.572  1.00 20.00    +0.133 A 
ATOM     38 O38  LIG A   1       1.223  -0.973   1.107  1.00 20.00    -0.456 OA
ATOM     39 C39  LIG A   1       5.820  -0.706  -1.317  1.00 20.00    +0.246 C 
ATOM     40 O40  LIG A   1       5.995  -1.750  -1.957  1.00 20.00    -0.273 OA
ATOM     41 C41  LIG A   1       7.026  -0.065  -0.527  1.00 20.00    +0.088 C 
ATOM     42 N42  LIG A   1       7.715   0.856  -1.461  1.00 20.00    -0.320 NA
ATOM     43 N43  LIG A   1       1.893   0.385   0.817  1.00 20.00    -0.330 NA
ATOM     44 C44  LIG A   1       1.066   0.614  -0.366  1.00 20.00    -0.007 C 
ATOM     45 C45  LIG A   1       0.097  -0.545  -0.607  1.00 20.00    -0.029 C 
ATOM     46 C46  LIG A   1      -1.068  -0.596   0.384  1.00 20.00    -0.007 C 
ATOM     47 N47  LIG A   1      -2.046   0.458   0.118  1.00 20.00    -0.330 NA
ATOM     48 H48  LIG A   1       9.889  -0.397  -0.824  1.00 20.00    +0.023 H 
ATOM     49 H49  LIG A   1      10.111  -1.483   0.535  1.00 20.00    +0.023 H 
ATOM     50 H50  LIG A   1       9.547   0.172   0.822  1.00 20.00    +0.023 H 
ATOM     51 H51  LIG A   1       8.042  -1.998  -0.715  1.00 20.00    +0.032 H 
ATOM     52 H52  LIG A   1       7.935  -1.114   2.205  1.00 20.00    +0.032 H 
ATOM     53 H53  LIG A   1       8.190  -2.725   1.560  1.00 20.00    +0.032 H 
ATOM     54 H54  LIG A   1       5.807  -0.554   3.036  1.00 20.00    +0.063 H 
ATOM     55 H55  LIG A   1       3.408  -0.416   2.600  1.00 20.00    +0.063 H 
ATOM     56 H56  LIG A   1       3.776  -3.533  -0.368  1.00 20.00    +0.063 H 
ATOM     57 H57  LIG A   1       6.154  -3.748   0.152  1.00 20.00    +0.063 H 
ATOM     58 H58  LIG A   1       1.441  -0.685  -1.583  1.00 20.00    +0.072 H 
ATOM     59 H59  LIG A   1       4.738   1.702  -2.295  1.00 20.00    +0.050 H 
ATOM     60 H60  LIG A   1       5.227   1.833  -0.610  1.00 20.00    +0.050 H 
ATOM     61 H61  LIG A   1       2.305   1.592  -1.541  1.00 20.00    +0.029 H 
ATOM     62 H62  LIG A   1       3.140   3.084  -1.191  1.00 20.00    +0.029 H 
ATOM     63 H63  LIG A   1       3.146   0.985   0.971  1.00 20.00    +0.028 H 
ATOM     64 H64  LIG A   1       3.389   2.683   1.084  1.00 20.00    +0.028 H 
ATOM     65 H65  LIG A   1       1.069   3.132   0.592  1.00 20.00    +0.047 H 
ATOM     66 H66  LIG A   1       0.629   3.266   3.880  1.00 20.00    +0.296 HD
ATOM     67 H67  LIG A   1      -0.913   2.850  -0.346  1.00 20.00    +0.063 H 
ATOM     68 H68  LIG A   1      -2.780   1.543  -1.142  1.00 20.00    +0.064 H 
ATOM     69 H69  LIG A   1      -3.136  -2.059  -0.416  1.00 20.00    +0.160 HD
ATOM     70 H70  LIG A   1      -4.802  -1.464  -1.993  1.00 20.00    +0.049 H 
ATOM     71 H71  LIG A   1      -4.173   0.165  -2.115  1.00 20.00    +0.049 H 
ATOM     72 H72  LIG A   1      -4.762   0.456   0.397  1.00 20.00    +0.030 H 
ATOM     73 H73  LIG A   1      -5.481  -1.151   0.341  1.00 20.00    +0.030 H 
ATOM     74 H74  LIG A   1      -6.313   1.280  -1.339  1.00 20.00    +0.043 H 
ATOM     75 H75  LIG A   1      -7.018  -0.345  -1.533  1.00 20.00    +0.043 H 
ATOM     76 H76  LIG A   1      -7.009   1.129   1.029  1.00 20.00    +0.122 HD
ATOM     77 H77  LIG A   1      -8.745   1.368  -1.253  1.00 20.00    +0.043 H 
ATOM     78 H78  LIG A   1      -8.582   2.383   0.174  1.00 20.00    +0.043 H 
ATOM     79 H79  LIG A   1     -10.800   1.370   0.194  1.00 20.00    +0.028 H 
ATOM     80 H80  LIG A   1      -9.872   0.716   1.523  1.00 20.00    +0.028 H 
ATOM     81 H81  LIG A   1     -11.131  -1.081   0.489  1.00 20.00    +0.028 H 
ATOM     82 H82  LIG A   1      -9.413  -1.374   0.275  1.00 20.00    +0.028 H 
ATOM     83 H83  LIG A   1     -10.535  -1.953  -1.781  1.00 20.00    +0.043 H 
ATOM     84 H84  LIG A   1      -9.563  -0.529  -2.105  1.00 20.00    +0.043 H 
ATOM     85 H85  LIG A   1     -11.606   0.784  -1.805  1.00 20.00    +0.118 HD
ATOM     86 H86  LIG A   1     -12.454  -0.596  -1.587  1.00 20.00    +0.118 HD
ATOM     87 H87  LIG A   1      -0.904  -2.045   0.275  1.00 20.00    +0.068 H 
ATOM     88 H88  LIG A   1       6.651   0.514   0.322  1.00 20.00    +0.057 H 
ATOM     89 H89  LIG A   1       7.058   1.471  -1.927  1.00 20.00    +0.119 HD
ATOM     90 H90  LIG A   1       8.362   1.449  -0.943  1.00 20.00    +0.119 HD
ATOM     91 H91  LIG A   1       2.493  -0.423   0.664  1.00 20.00    +0.118 HD
ATOM     92 H92  LIG A   1       2.515   1.181   0.944  1.00 20.00    +0.118 HD
ATOM     93 H93  LIG A   1       0.526   1.559  -0.255  1.00 20.00    +0.043 H 
ATOM     94 H94  LIG A   1       1.725   0.718  -1.235  1.00 20.00    +0.043 H 
ATOM     95 H95  LIG A   1      -0.294  -0.480  -1.631  1.00 20.00    +0.029 H 
ATOM     96 H96  LIG A   1       0.646  -1.494  -0.556  1.00 20.00    +0.029 H 
ATOM     97 H97  LIG A   1      -1.573  -1.565   0.297  1.00 20.00    +0.043 H 
ATOM     98 H98  LIG A   1      -0.706  -0.507   1.414  1.00 20.00    +0.043 H 
ATOM     99 H99  LIG A   1      -2.797   0.394   0.803  1.00 20.00    +0.118 HD
ATOM    100 H100 LIG A   1      -2.476   0.300  -0.792  1.00 20.00    +0.118 HD
ENDROOT
TORSDOF 0
