ROOT
ATOM      1 C1   LIG A   1      -7.935   0.095  -0.296  1.00 20.00    -0.060 C 
ATOM      2 C2   LIG A   1      -6.469  -0.356  -0.432  1.00 20.00    -0.016 C 
ATOM      3 C3   LIG A   1      -5.574   0.887  -0.678  1.00 20.00    -0.023 C 
ATOM      4 C4   LIG A   1      -4.273   0.621  -1.418  1.00 20.00    -0.046 C 
ATOM      5 C5   LIG A   1      -3.179   1.414  -1.483  1.00 20.00    -0.059 C 
ATOM      6 C6   LIG A   1      -2.821   2.363  -0.437  1.00 20.00    -0.054 C 
ATOM      7 C7   LIG A   1      -1.539   2.514  -0.014  1.00 20.00    +0.009 C 
ATOM      8 C8   LIG A   1      -0.426   2.257  -0.893  1.00 20.00    +0.131 A 
ATOM      9 C9   LIG A   1      -0.201   2.652  -2.206  1.00 20.00    -0.015 A 
ATOM     10 C10  LIG A   1       1.079   2.183  -2.589  1.00 20.00    -0.015 A 
ATOM     11 C11  LIG A   1       1.602   1.537  -1.493  1.00 20.00    +0.134 A 
ATOM     12 C12  LIG A   1       2.863   0.861  -1.203  1.00 20.00    +0.017 A 
ATOM     13 C13  LIG A   1       3.778   0.583  -2.224  1.00 20.00    -0.049 A 
ATOM     14 C14  LIG A   1       5.001  -0.048  -1.944  1.00 20.00    -0.038 A 
ATOM     15 C15  LIG A   1       5.336  -0.438  -0.645  1.00 20.00    +0.034 A 
ATOM     16 N16  LIG A   1       6.570  -0.987  -0.293  1.00 20.00    -0.385 NA
ATOM     17 C17  LIG A   1       7.391  -1.656  -1.299  1.00 20.00    +0.022 C 
ATOM     18 C18  LIG A   1       8.660  -2.217  -0.667  1.00 20.00    +0.022 C 
ATOM     19 C19  LIG A   1       8.469  -3.389   0.279  1.00 20.00    +0.092 C 
ATOM     20 N20  LIG A   1       9.497  -3.998   0.783  1.00 20.00    -0.289 NA
ATOM     21 N21  LIG A   1       7.243  -3.840   0.655  1.00 20.00    -0.388 NA
ATOM     22 C22  LIG A   1       4.432  -0.125   0.377  1.00 20.00    -0.038 A 
ATOM     23 C23  LIG A   1       3.210   0.500   0.104  1.00 20.00    -0.049 A 
ATOM     24 O24  LIG A   1       0.698   1.584  -0.474  1.00 20.00    -0.456 OA
ATOM     25 C25  LIG A   1      -1.321   2.772   1.477  1.00 20.00    +0.085 C 
ATOM     26 C26  LIG A   1      -0.217   3.812   1.642  1.00 20.00    +0.311 C 
ATOM     27 O27  LIG A   1      -0.241   4.952   1.198  1.00 20.00    -0.252 OA
ATOM     28 O28  LIG A   1       0.849   3.398   2.355  1.00 20.00    -0.481 OA
ATOM     29 C29  LIG A   1      -1.060   1.441   2.245  1.00 20.00    -0.034 C 
ATOM     30 C30  LIG A   1      -2.268   0.482   2.278  1.00 20.00    -0.034 C 
ATOM     31 C31  LIG A   1      -2.213  -0.740   1.319  1.00 20.00    +0.025 C 
ATOM     32 N32  LIG A   1      -3.512  -1.060   0.678  1.00 20.00    -0.318 NA
ATOM     33 C33  LIG A   1      -3.495  -1.521  -0.635  1.00 20.00    +0.007 C 
ATOM     34 C34  LIG A   1      -3.943  -0.780  -1.664  1.00 20.00    -0.043 C 
ATOM     35 C35  LIG A   1      -4.670  -1.055   1.457  1.00 20.00    +0.243 C 
ATOM     36 O36  LIG A   1      -4.614  -0.976   2.692  1.00 20.00    -0.273 OA
ATOM     37 C37  LIG A   1      -6.074  -1.212   0.804  1.00 20.00    +0.088 C 
ATOM     38 N38  LIG A   1      -6.386  -2.644   0.593  1.00 20.00    -0.320 NA
ATOM     39 N39  LIG A   1       1.843   0.511   0.828  1.00 20.00    -0.330 NA
ATOM     40 C40  LIG A   1       1.034   0.659  -0.380  1.00 20.00    -0.007 C 
ATOM     41 C41  LIG A   1       0.130  -0.554  -0.609  1.00 20.00    -0.029 C 
ATOM     42 C42  LIG A   1      -1.033  -0.661   0.377  1.00 20.00    -0.007 C 
ATOM     43 N43  LIG A   1      -2.050   0.362   0.135  1.00 20.00    -0.330 NA
ATOM     44 H44  LIG A   1      -8.059   0.792   0.538  1.00 20.00    +0.023 H 
ATOM     45 H45  LIG A   1      -8.272   0.596  -1.209  1.00 20.00    +0.023 H 
ATOM     46 H46  LIG A   1      -8.594  -0.761  -0.127  1.00 20.00    +0.023 H 
ATOM     47 H47  LIG A   1      -6.453  -0.988  -1.331  1.00 20.00    +0.032 H 
ATOM     48 H48  LIG A   1      -6.130   1.600  -1.303  1.00 20.00    +0.032 H 
ATOM     49 H49  LIG A   1      -5.397   1.392   0.278  1.00 20.00    +0.032 H 
ATOM     50 H50  LIG A   1      -2.331   1.022  -2.046  1.00 20.00    +0.063 H 
ATOM     51 H51  LIG A   1      -3.624   2.623   0.249  1.00 20.00    +0.063 H 
ATOM     52 H52  LIG A   1      -0.890   3.229  -2.812  1.00 20.00    +0.066 H 
ATOM     53 H53  LIG A   1       1.562   2.325  -3.543  1.00 20.00    +0.066 H 
ATOM     54 H54  LIG A   1       3.565   0.861  -3.253  1.00 20.00    +0.063 H 
ATOM     55 H55  LIG A   1       5.685  -0.212  -2.772  1.00 20.00    +0.064 H 
ATOM     56 H56  LIG A   1       6.520  -1.508   0.587  1.00 20.00    +0.160 HD
ATOM     57 H57  LIG A   1       7.691  -0.935  -2.070  1.00 20.00    +0.049 H 
ATOM     58 H58  LIG A   1       6.821  -2.459  -1.785  1.00 20.00    +0.049 H 
ATOM     59 H59  LIG A   1       9.189  -1.427  -0.116  1.00 20.00    +0.037 H 
ATOM     60 H60  LIG A   1       9.331  -2.559  -1.467  1.00 20.00    +0.037 H 
ATOM     61 H61  LIG A   1      10.368  -3.563   0.461  1.00 20.00    +0.189 HD
ATOM     62 H62  LIG A   1       6.484  -3.810  -0.020  1.00 20.00    +0.157 HD
ATOM     63 H63  LIG A   1       7.311  -4.735   1.133  1.00 20.00    +0.157 HD
ATOM     64 H64  LIG A   1       4.678  -0.357   1.412  1.00 20.00    +0.064 H 
ATOM     65 H65  LIG A   1       2.541   0.723   0.934  1.00 20.00    +0.063 H 
ATOM     66 H66  LIG A   1      -2.208   3.239   1.929  1.00 20.00    +0.047 H 
ATOM     67 H67  LIG A   1       1.463   4.162   2.311  1.00 20.00    +0.296 HD
ATOM     68 H68  LIG A   1      -0.170   0.924   1.871  1.00 20.00    +0.028 H 
ATOM     69 H69  LIG A   1      -0.831   1.705   3.287  1.00 20.00    +0.028 H 
ATOM     70 H70  LIG A   1      -3.186   1.064   2.136  1.00 20.00    +0.029 H 
ATOM     71 H71  LIG A   1      -2.329   0.078   3.299  1.00 20.00    +0.029 H 
ATOM     72 H72  LIG A   1      -1.474  -0.563   0.529  1.00 20.00    +0.050 H 
ATOM     73 H73  LIG A   1      -1.898  -1.631   1.877  1.00 20.00    +0.050 H 
ATOM     74 H74  LIG A   1      -3.020  -2.486  -0.793  1.00 20.00    +0.082 H 
ATOM     75 H75  LIG A   1      -3.902  -1.135  -2.689  1.00 20.00    +0.064 H 
ATOM     76 H76  LIG A   1      -6.749  -0.896   1.615  1.00 20.00    +0.057 H 
ATOM     77 H77  LIG A   1      -5.739  -3.029  -0.093  1.00 20.00    +0.119 HD
ATOM     78 H78  LIG A   1      -6.200  -3.141   1.467  1.00 20.00    +0.119 HD
ATOM     79 H79  LIG A   1       2.494  -0.265   0.711  1.00 20.00    +0.118 HD
ATOM     80 H80  LIG A   1       2.412   1.348   0.951  1.00 20.00    +0.118 HD
ATOM     81 H81  LIG A   1       0.444   1.578  -0.313  1.00 20.00    +0.043 H 
ATOM     82 H82  LIG A   1       1.708   0.770  -1.237  1.00 20.00    +0.043 H 
ATOM     83 H83  LIG A   1      -0.262  -0.516  -1.634  1.00 20.00    +0.029 H 
ATOM     84 H84  LIG A   1       0.730  -1.471  -0.550  1.00 20.00    +0.029 H 
ATOM     85 H85  LIG A   1      -1.502  -1.646   0.271  1.00 20.00    +0.043 H 
ATOM     86 H86  LIG A   1      -0.676  -0.582   1.409  1.00 20.00    +0.043 H 
ATOM     87 H87  LIG A   1      -2.799   0.253   0.819  1.00 20.00    +0.118 HD
ATOM     88 H88  LIG A   1      -2.473   0.214  -0.779  1.00 20.00    +0.118 HD
ENDROOT
TORSDOF 0
