ROOT
ATOM      1 C1   LIG A   1      -4.692  -0.689   1.434  1.00 20.00    -0.056 C 
ATOM      2 C2   LIG A   1      -4.749  -0.683  -0.084  1.00 20.00    -0.002 C 
ATOM      3 S3   LIG A   1      -3.110  -0.965  -0.814  1.00 20.00    -0.087 SA
ATOM      4 C4   LIG A   1      -2.370   0.615  -0.548  1.00 20.00    +0.205 C 
ATOM      5 O5   LIG A   1      -3.031   1.602  -0.238  1.00 20.00    -0.285 OA
ATOM      6 C6   LIG A   1      -0.843   0.656  -0.752  1.00 20.00    +0.074 C 
ATOM      7 N7   LIG A   1      -0.440   2.018  -1.182  1.00 20.00    -0.321 NA
ATOM      8 C8   LIG A   1      -0.132   0.289   0.559  1.00 20.00    -0.028 C 
ATOM      9 C9   LIG A   1       1.303  -0.222   0.386  1.00 20.00    -0.034 C 
ATOM     10 C10  LIG A   1       2.248   0.744  -0.328  1.00 20.00    +0.018 C 
ATOM     11 N11  LIG A   1       3.632   0.303  -0.197  1.00 20.00    -0.357 NA
ATOM     12 C12  LIG A   1       4.120  -0.749  -0.891  1.00 20.00    +0.185 C 
ATOM     13 N13  LIG A   1       3.494  -1.395  -1.803  1.00 20.00    -0.270 NA
ATOM     14 N14  LIG A   1       5.382  -1.038  -0.514  1.00 20.00    -0.370 NA
ATOM     15 N15  LIG A   1      -8.309   1.293  -0.622  1.00 20.00    -0.330 NA
ATOM     16 C16  LIG A   1      -7.859   0.129   0.130  1.00 20.00    -0.008 C 
ATOM     17 C17  LIG A   1      -6.568   0.400   0.905  1.00 20.00    -0.040 C 
ATOM     18 C18  LIG A   1      -5.357   0.653  -0.000  1.00 20.00    -0.039 C 
ATOM     19 C19  LIG A   1      -4.065   0.935   0.777  1.00 20.00    -0.005 C 
ATOM     20 N20  LIG A   1      -3.613  -0.116   1.690  1.00 20.00    -0.317 NA
ATOM     21 C21  LIG A   1      -3.301  -1.399   1.061  1.00 20.00    -0.003 C 
ATOM     22 C22  LIG A   1      -2.135  -1.369   0.069  1.00 20.00    -0.023 C 
ATOM     23 C23  LIG A   1      -0.834  -0.873   0.704  1.00 20.00    +0.016 C 
ATOM     24 N24  LIG A   1       0.256  -1.008  -0.264  1.00 20.00    -0.385 NA
ATOM     25 C25  LIG A   1       1.538  -0.558   0.068  1.00 20.00    +0.035 A 
ATOM     26 C26  LIG A   1       1.981  -0.373   1.383  1.00 20.00    -0.038 A 
ATOM     27 C27  LIG A   1       3.300   0.005   1.659  1.00 20.00    -0.048 A 
ATOM     28 C28  LIG A   1       4.213   0.178   0.616  1.00 20.00    +0.034 A 
ATOM     29 C29  LIG A   1       3.803  -0.036  -0.695  1.00 20.00    +0.036 A 
ATOM     30 C30  LIG A   1       2.479  -0.415  -0.963  1.00 20.00    -0.027 A 
ATOM     31 C31  LIG A   1       4.756   0.128  -1.811  1.00 20.00    +0.194 C 
ATOM     32 O32  LIG A   1       4.396  -0.053  -2.969  1.00 20.00    -0.289 OA
ATOM     33 C33  LIG A   1       6.150   0.517  -1.515  1.00 20.00    +0.034 A 
ATOM     34 C34  LIG A   1       7.064   0.672  -2.565  1.00 20.00    -0.050 A 
ATOM     35 C35  LIG A   1       8.383   1.042  -2.294  1.00 20.00    -0.061 A 
ATOM     36 C36  LIG A   1       8.791   1.258  -0.978  1.00 20.00    -0.061 A 
ATOM     37 C37  LIG A   1       7.882   1.104   0.069  1.00 20.00    -0.050 A 
ATOM     38 C38  LIG A   1       6.558   0.733  -0.200  1.00 20.00    +0.034 A 
ATOM     39 C39  LIG A   1       5.603   0.572   0.915  1.00 20.00    +0.194 C 
ATOM     40 O40  LIG A   1       5.961   0.764   2.071  1.00 20.00    -0.289 OA
ATOM     41 H41  LIG A   1      -5.698  -0.551   1.843  1.00 20.00    +0.024 H 
ATOM     42 H42  LIG A   1      -4.309  -1.642   1.815  1.00 20.00    +0.024 H 
ATOM     43 H43  LIG A   1      -4.065   0.118   1.825  1.00 20.00    +0.024 H 
ATOM     44 H44  LIG A   1      -5.401  -1.496  -0.419  1.00 20.00    +0.038 H 
ATOM     45 H45  LIG A   1      -5.182   0.250  -0.458  1.00 20.00    +0.038 H 
ATOM     46 H46  LIG A   1      -0.569  -0.042  -1.551  1.00 20.00    +0.055 H 
ATOM     47 H47  LIG A   1      -0.871   2.210  -2.088  1.00 20.00    +0.119 HD
ATOM     48 H48  LIG A   1      -0.887   2.688  -0.548  1.00 20.00    +0.119 HD
ATOM     49 H49  LIG A   1      -0.131   1.149   1.243  1.00 20.00    +0.029 H 
ATOM     50 H50  LIG A   1      -0.697  -0.494   1.083  1.00 20.00    +0.029 H 
ATOM     51 H51  LIG A   1       1.702  -0.452   1.383  1.00 20.00    +0.029 H 
ATOM     52 H52  LIG A   1       1.275  -1.176  -0.154  1.00 20.00    +0.029 H 
ATOM     53 H53  LIG A   1       2.172   1.740   0.123  1.00 20.00    +0.049 H 
ATOM     54 H54  LIG A   1       1.992   0.843  -1.388  1.00 20.00    +0.049 H 
ATOM     55 H55  LIG A   1       3.975   0.355   0.754  1.00 20.00    +0.163 HD
ATOM     56 H56  LIG A   1       4.079  -2.152  -2.155  1.00 20.00    +0.191 HD
ATOM     57 H57  LIG A   1       5.884  -1.633  -1.161  1.00 20.00    +0.159 HD
ATOM     58 H58  LIG A   1       5.919  -0.204  -0.308  1.00 20.00    +0.159 HD
ATOM     59 H59  LIG A   1      -9.197   1.079  -1.075  1.00 20.00    +0.118 HD
ATOM     60 H60  LIG A   1      -7.655   1.496  -1.377  1.00 20.00    +0.118 HD
ATOM     61 H61  LIG A   1      -7.723  -0.719  -0.550  1.00 20.00    +0.043 H 
ATOM     62 H62  LIG A   1      -8.645  -0.147   0.842  1.00 20.00    +0.043 H 
ATOM     63 H63  LIG A   1      -6.375  -0.470   1.543  1.00 20.00    +0.028 H 
ATOM     64 H64  LIG A   1      -6.712   1.257   1.576  1.00 20.00    +0.028 H 
ATOM     65 H65  LIG A   1      -5.551   1.523  -0.638  1.00 20.00    +0.028 H 
ATOM     66 H66  LIG A   1      -5.215  -0.197  -0.677  1.00 20.00    +0.028 H 
ATOM     67 H67  LIG A   1      -4.212   1.843   1.375  1.00 20.00    +0.043 H 
ATOM     68 H68  LIG A   1      -3.265   1.184   0.070  1.00 20.00    +0.043 H 
ATOM     69 H69  LIG A   1      -4.321  -0.260   2.411  1.00 20.00    +0.122 HD
ATOM     70 H70  LIG A   1      -4.189  -1.816   0.573  1.00 20.00    +0.043 H 
ATOM     71 H71  LIG A   1      -3.046  -2.103   1.863  1.00 20.00    +0.043 H 
ATOM     72 H72  LIG A   1      -1.984  -2.387  -0.314  1.00 20.00    +0.030 H 
ATOM     73 H73  LIG A   1      -2.386  -0.755  -0.804  1.00 20.00    +0.030 H 
ATOM     74 H74  LIG A   1      -0.622  -1.478   1.593  1.00 20.00    +0.049 H 
ATOM     75 H75  LIG A   1      -0.936   0.175   1.005  1.00 20.00    +0.049 H 
ATOM     76 H76  LIG A   1      -0.011  -0.714  -1.202  1.00 20.00    +0.160 HD
ATOM     77 H77  LIG A   1       1.309  -0.518   2.225  1.00 20.00    +0.064 H 
ATOM     78 H78  LIG A   1       3.609   0.152   2.692  1.00 20.00    +0.063 H 
ATOM     79 H79  LIG A   1       2.180  -0.604  -1.993  1.00 20.00    +0.065 H 
ATOM     80 H80  LIG A   1       6.753   0.506  -3.595  1.00 20.00    +0.063 H 
ATOM     81 H81  LIG A   1       9.091   1.162  -3.111  1.00 20.00    +0.062 H 
ATOM     82 H82  LIG A   1       9.819   1.546  -0.767  1.00 20.00    +0.062 H 
ATOM     83 H83  LIG A   1       8.208   1.274   1.094  1.00 20.00    +0.063 H 
ENDROOT
TORSDOF 0
