ROOT
ATOM      1 N1   LIG A   1       3.152   1.433   0.270  1.00 20.00    -0.287 NA
ATOM      2 C2   LIG A   1       3.379   0.157   0.244  1.00 20.00    +0.110 C 
ATOM      3 N3   LIG A   1       4.605  -0.275  -0.161  1.00 20.00    -0.386 NA
ATOM      4 C4   LIG A   1       2.309  -0.846   0.672  1.00 20.00    +0.075 C 
ATOM      5 N5   LIG A   1       1.042  -0.441   0.106  1.00 20.00    -0.348 NA
ATOM      6 C6   LIG A   1      -0.147  -0.974   0.554  1.00 20.00    +0.237 C 
ATOM      7 O7   LIG A   1      -0.223  -1.712   1.531  1.00 20.00    -0.273 OA
ATOM      8 C8   LIG A   1      -1.350  -0.610  -0.333  1.00 20.00    +0.087 C 
ATOM      9 C9   LIG A   1      -2.681  -0.578   0.413  1.00 20.00    -0.027 C 
ATOM     10 C10  LIG A   1      -3.333   0.735   0.001  1.00 20.00    -0.039 C 
ATOM     11 C11  LIG A   1      -2.558   1.171  -1.226  1.00 20.00    -0.004 C 
ATOM     12 N12  LIG A   1      -1.184   0.744  -0.934  1.00 20.00    -0.306 NA
ATOM     13 N13  LIG A   1      -8.304   1.326  -0.573  1.00 20.00    -0.330 NA
ATOM     14 C14  LIG A   1      -7.858   0.158   0.175  1.00 20.00    -0.008 C 
ATOM     15 C15  LIG A   1      -6.560   0.420   0.944  1.00 20.00    -0.040 C 
ATOM     16 C16  LIG A   1      -5.352   0.666   0.034  1.00 20.00    -0.039 C 
ATOM     17 C17  LIG A   1      -4.056   0.948   0.806  1.00 20.00    -0.005 C 
ATOM     18 N18  LIG A   1      -3.603  -0.102   1.721  1.00 20.00    -0.317 NA
ATOM     19 C19  LIG A   1      -3.298  -1.388   1.094  1.00 20.00    -0.003 C 
ATOM     20 C20  LIG A   1      -2.139  -1.364   0.094  1.00 20.00    -0.023 C 
ATOM     21 C21  LIG A   1      -0.831  -0.873   0.719  1.00 20.00    +0.016 C 
ATOM     22 N22  LIG A   1       0.250  -1.007  -0.259  1.00 20.00    -0.385 NA
ATOM     23 C23  LIG A   1       1.537  -0.564   0.062  1.00 20.00    +0.035 A 
ATOM     24 C24  LIG A   1       1.994  -0.394   1.374  1.00 20.00    -0.038 A 
ATOM     25 C25  LIG A   1       3.318  -0.024   1.640  1.00 20.00    -0.048 A 
ATOM     26 C26  LIG A   1       4.219   0.157   0.588  1.00 20.00    +0.034 A 
ATOM     27 C27  LIG A   1       3.795  -0.042  -0.720  1.00 20.00    +0.036 A 
ATOM     28 C28  LIG A   1       2.467  -0.413  -0.977  1.00 20.00    -0.027 A 
ATOM     29 C29  LIG A   1       4.736   0.130  -1.846  1.00 20.00    +0.194 C 
ATOM     30 O30  LIG A   1       4.361  -0.033  -3.001  1.00 20.00    -0.289 OA
ATOM     31 C31  LIG A   1       6.135   0.508  -1.561  1.00 20.00    +0.034 A 
ATOM     32 C32  LIG A   1       7.039   0.666  -2.619  1.00 20.00    -0.050 A 
ATOM     33 C33  LIG A   1       8.363   1.025  -2.360  1.00 20.00    -0.061 A 
ATOM     34 C34  LIG A   1       8.787   1.225  -1.046  1.00 20.00    -0.061 A 
ATOM     35 C35  LIG A   1       7.888   1.067   0.010  1.00 20.00    -0.050 A 
ATOM     36 C36  LIG A   1       6.559   0.708  -0.248  1.00 20.00    +0.034 A 
ATOM     37 C37  LIG A   1       5.615   0.544   0.875  1.00 20.00    +0.194 C 
ATOM     38 O38  LIG A   1       5.985   0.725   2.029  1.00 20.00    -0.289 OA
ATOM     39 H39  LIG A   1       2.189   1.586   0.597  1.00 20.00    +0.189 HD
ATOM     40 H40  LIG A   1       5.283   0.480  -0.184  1.00 20.00    +0.157 HD
ATOM     41 H41  LIG A   1       4.959  -1.127   0.254  1.00 20.00    +0.157 HD
ATOM     42 H42  LIG A   1       2.551  -1.848   0.307  1.00 20.00    +0.058 H 
ATOM     43 H43  LIG A   1       2.242  -0.862   1.765  1.00 20.00    +0.058 H 
ATOM     44 H44  LIG A   1       1.025  -0.004  -0.814  1.00 20.00    +0.163 HD
ATOM     45 H45  LIG A   1      -1.389  -1.351  -1.141  1.00 20.00    +0.057 H 
ATOM     46 H46  LIG A   1      -3.306  -1.422   0.098  1.00 20.00    +0.029 H 
ATOM     47 H47  LIG A   1      -2.579  -0.626   1.502  1.00 20.00    +0.029 H 
ATOM     48 H48  LIG A   1      -3.218   1.472   0.805  1.00 20.00    +0.028 H 
ATOM     49 H49  LIG A   1      -4.403   0.620  -0.200  1.00 20.00    +0.028 H 
ATOM     50 H50  LIG A   1      -2.924   0.665  -2.126  1.00 20.00    +0.043 H 
ATOM     51 H51  LIG A   1      -2.618   2.250  -1.391  1.00 20.00    +0.043 H 
ATOM     52 H52  LIG A   1      -0.822   1.361  -0.202  1.00 20.00    +0.123 HD
ATOM     53 H53  LIG A   1      -9.197   1.119  -1.020  1.00 20.00    +0.118 HD
ATOM     54 H54  LIG A   1      -7.653   1.525  -1.332  1.00 20.00    +0.118 HD
ATOM     55 H55  LIG A   1      -7.730  -0.690  -0.507  1.00 20.00    +0.043 H 
ATOM     56 H56  LIG A   1      -8.641  -0.115   0.890  1.00 20.00    +0.043 H 
ATOM     57 H57  LIG A   1      -6.370  -0.452   1.580  1.00 20.00    +0.028 H 
ATOM     58 H58  LIG A   1      -6.697   1.276   1.617  1.00 20.00    +0.028 H 
ATOM     59 H59  LIG A   1      -5.545   1.535  -0.606  1.00 20.00    +0.028 H 
ATOM     60 H60  LIG A   1      -5.215  -0.186  -0.641  1.00 20.00    +0.028 H 
ATOM     61 H61  LIG A   1      -4.199   1.858   1.401  1.00 20.00    +0.043 H 
ATOM     62 H62  LIG A   1      -3.259   1.193   0.095  1.00 20.00    +0.043 H 
ATOM     63 H63  LIG A   1      -4.309  -0.242   2.444  1.00 20.00    +0.122 HD
ATOM     64 H64  LIG A   1      -4.189  -1.805   0.614  1.00 20.00    +0.043 H 
ATOM     65 H65  LIG A   1      -3.039  -2.089   1.897  1.00 20.00    +0.043 H 
ATOM     66 H66  LIG A   1      -1.995  -2.383  -0.289  1.00 20.00    +0.030 H 
ATOM     67 H67  LIG A   1      -2.394  -0.750  -0.778  1.00 20.00    +0.030 H 
ATOM     68 H68  LIG A   1      -0.613  -1.481   1.604  1.00 20.00    +0.049 H 
ATOM     69 H69  LIG A   1      -0.927   0.175   1.025  1.00 20.00    +0.049 H 
ATOM     70 H70  LIG A   1      -0.025  -0.706  -1.193  1.00 20.00    +0.160 HD
ATOM     71 H71  LIG A   1       1.332  -0.546   2.222  1.00 20.00    +0.064 H 
ATOM     72 H72  LIG A   1       3.639   0.112   2.671  1.00 20.00    +0.063 H 
ATOM     73 H73  LIG A   1       2.155  -0.590  -2.006  1.00 20.00    +0.065 H 
ATOM     74 H74  LIG A   1       6.715   0.512  -3.647  1.00 20.00    +0.063 H 
ATOM     75 H75  LIG A   1       9.063   1.147  -3.183  1.00 20.00    +0.062 H 
ATOM     76 H76  LIG A   1       9.819   1.504  -0.844  1.00 20.00    +0.062 H 
ATOM     77 H77  LIG A   1       8.227   1.225   1.032  1.00 20.00    +0.063 H 
ENDROOT
TORSDOF 0
