MODEL 1
REMARK VINA RESULT:   -11.550      0.000      0.000
REMARK INTER + INTRA:         -11.550
REMARK INTER:                 -11.550
REMARK INTRA:                   0.000
REMARK UNBOUND:                 0.000
ROOT
ATOM      1 C1   LIG A   1      20.316  20.404   6.650  1.00 20.00    -0.056 C 
ATOM      2 C2   LIG A   1      21.098  19.474   7.563  1.00 20.00    -0.002 C 
ATOM      3 S3   LIG A   1      20.645  19.720   9.305  1.00 20.00    -0.087 SA
ATOM      4 C4   LIG A   1      21.522  21.214   9.651  1.00 20.00    +0.205 C 
ATOM      5 O5   LIG A   1      22.409  21.631   8.914  1.00 20.00    -0.285 OA
ATOM      6 C6   LIG A   1      21.155  21.864  11.000  1.00 20.00    +0.074 C 
ATOM      7 N7   LIG A   1      22.086  21.381  12.044  1.00 20.00    -0.321 NA
ATOM      8 C8   LIG A   1      21.230  23.395  10.880  1.00 20.00    -0.028 C 
ATOM      9 C9   LIG A   1      20.434  24.163  11.942  1.00 20.00    -0.034 C 
ATOM     10 C10  LIG A   1      20.844  23.876  13.387  1.00 20.00    +0.018 C 
ATOM     11 N11  LIG A   1      20.242  24.846  14.295  1.00 20.00    -0.357 NA
ATOM     12 C12  LIG A   1      18.934  24.797  14.631  1.00 20.00    +0.185 C 
ATOM     13 N13  LIG A   1      18.115  23.865  14.312  1.00 20.00    -0.270 NA
ATOM     14 N14  LIG A   1      18.582  25.866  15.375  1.00 20.00    -0.370 NA
ATOM     15 N15  LIG A   1      23.642  15.962   1.799  1.00 20.00    -0.289 NA
ATOM     16 C16  LIG A   1      23.290  16.591   2.872  1.00 20.00    +0.092 C 
ATOM     17 N17  LIG A   1      24.179  17.452   3.438  1.00 20.00    -0.388 NA
ATOM     18 C18  LIG A   1      21.931  16.395   3.506  1.00 20.00    +0.022 C 
ATOM     19 C19  LIG A   1      22.013  15.415   4.674  1.00 20.00    +0.022 C 
ATOM     20 N20  LIG A   1      22.699  15.980   5.837  1.00 20.00    -0.384 NA
ATOM     21 C21  LIG A   1      22.136  16.985   6.619  1.00 20.00    +0.038 A 
ATOM     22 C22  LIG A   1      20.758  17.234   6.690  1.00 20.00    -0.038 A 
ATOM     23 C23  LIG A   1      20.241  18.221   7.537  1.00 20.00    -0.045 A 
ATOM     24 C24  LIG A   1      21.100  18.954   8.354  1.00 20.00    +0.065 A 
ATOM     25 C25  LIG A   1      20.581  20.002   9.250  1.00 20.00    +0.200 C 
ATOM     26 O26  LIG A   1      19.384  20.267   9.268  1.00 20.00    -0.288 OA
ATOM     27 C27  LIG A   1      21.581  20.701  10.107  1.00 20.00    +0.065 C 
ATOM     28 C28  LIG A   1      21.204  21.777  11.041  1.00 20.00    -0.011 A 
ATOM     29 C29  LIG A   1      21.633  21.767  12.373  1.00 20.00    -0.052 A 
ATOM     30 C30  LIG A   1      21.266  22.798  13.249  1.00 20.00    -0.038 A 
ATOM     31 C31  LIG A   1      20.439  23.851  12.834  1.00 20.00    +0.034 A 
ATOM     32 N32  LIG A   1      20.161  24.877  13.747  1.00 20.00    -0.385 NA
ATOM     33 C33  LIG A   1      19.061  25.798  13.472  1.00 20.00    +0.016 C 
ATOM     34 C34  LIG A   1      18.846  26.748  14.653  1.00 20.00    -0.023 C 
ATOM     35 C35  LIG A   1      20.000  27.743  14.809  1.00 20.00    -0.003 C 
ATOM     36 N36  LIG A   1      19.755  28.762  15.836  1.00 20.00    -0.317 NA
ATOM     37 C37  LIG A   1      19.836  28.226  17.195  1.00 20.00    -0.005 C 
ATOM     38 C38  LIG A   1      19.789  29.346  18.238  1.00 20.00    -0.039 C 
ATOM     39 C39  LIG A   1      18.605  30.322  18.175  1.00 20.00    -0.040 C 
ATOM     40 C40  LIG A   1      17.220  29.674  18.187  1.00 20.00    -0.008 C 
ATOM     41 N41  LIG A   1      16.810  29.229  16.856  1.00 20.00    -0.330 NA
ATOM     42 C42  LIG A   1      20.048  23.874  11.493  1.00 20.00    -0.038 A 
ATOM     43 C43  LIG A   1      20.410  22.845  10.612  1.00 20.00    -0.052 A 
ATOM     44 C44  LIG A   1      22.864  20.332   9.967  1.00 20.00    +0.103 C 
ATOM     45 O45  LIG A   1      23.359  19.364   9.126  1.00 20.00    -0.463 OA
ATOM     46 C46  LIG A   1      22.464  18.692   8.335  1.00 20.00    +0.139 A 
ATOM     47 C47  LIG A   1      22.973  17.708   7.484  1.00 20.00    +0.005 A 
ATOM     48 H48  LIG A   1      20.575  20.201   5.605  1.00 20.00    +0.024 H 
ATOM     49 H49  LIG A   1      19.236  20.254   6.756  1.00 20.00    +0.024 H 
ATOM     50 H50  LIG A   1      20.543  21.456   6.846  1.00 20.00    +0.024 H 
ATOM     51 H51  LIG A   1      20.857  18.438   7.304  1.00 20.00    +0.038 H 
ATOM     52 H52  LIG A   1      22.176  19.601   7.419  1.00 20.00    +0.038 H 
ATOM     53 H53  LIG A   1      20.131  21.581  11.271  1.00 20.00    +0.055 H 
ATOM     54 H54  LIG A   1      21.992  20.367  12.126  1.00 20.00    +0.119 HD
ATOM     55 H55  LIG A   1      23.046  21.548  11.733  1.00 20.00    +0.119 HD
ATOM     56 H56  LIG A   1      22.276  23.728  10.898  1.00 20.00    +0.029 H 
ATOM     57 H57  LIG A   1      20.841  23.698   9.899  1.00 20.00    +0.029 H 
ATOM     58 H58  LIG A   1      20.546  25.236  11.737  1.00 20.00    +0.029 H 
ATOM     59 H59  LIG A   1      19.367  23.942  11.813  1.00 20.00    +0.029 H 
ATOM     60 H60  LIG A   1      21.933  23.958  13.488  1.00 20.00    +0.049 H 
ATOM     61 H61  LIG A   1      20.562  22.863  13.690  1.00 20.00    +0.049 H 
ATOM     62 H62  LIG A   1      20.585  25.788  14.150  1.00 20.00    +0.163 HD
ATOM     63 H63  LIG A   1      17.187  24.080  14.675  1.00 20.00    +0.191 HD
ATOM     64 H64  LIG A   1      17.706  25.757  15.868  1.00 20.00    +0.159 HD
ATOM     65 H65  LIG A   1      19.317  26.137  16.018  1.00 20.00    +0.159 HD
ATOM     66 H66  LIG A   1      22.892  15.344   1.470  1.00 20.00    +0.189 HD
ATOM     67 H67  LIG A   1      24.931  17.697   2.799  1.00 20.00    +0.157 HD
ATOM     68 H68  LIG A   1      23.793  18.246   3.936  1.00 20.00    +0.157 HD
ATOM     69 H69  LIG A   1      21.543  17.371   3.818  1.00 20.00    +0.037 H 
ATOM     70 H70  LIG A   1      21.247  15.998   2.748  1.00 20.00    +0.037 H 
ATOM     71 H71  LIG A   1      22.569  14.522   4.365  1.00 20.00    +0.049 H 
ATOM     72 H72  LIG A   1      21.013  15.061   4.949  1.00 20.00    +0.049 H 
ATOM     73 H73  LIG A   1      23.689  16.137   5.645  1.00 20.00    +0.160 HD
ATOM     74 H74  LIG A   1      20.055  16.665   6.089  1.00 20.00    +0.064 H 
ATOM     75 H75  LIG A   1      19.168  18.403   7.563  1.00 20.00    +0.063 H 
ATOM     76 H76  LIG A   1      22.252  20.958  12.753  1.00 20.00    +0.063 H 
ATOM     77 H77  LIG A   1      21.634  22.766  14.271  1.00 20.00    +0.064 H 
ATOM     78 H78  LIG A   1      20.151  24.522  14.701  1.00 20.00    +0.160 HD
ATOM     79 H79  LIG A   1      19.265  26.386  12.569  1.00 20.00    +0.049 H 
ATOM     80 H80  LIG A   1      18.136  25.230  13.312  1.00 20.00    +0.049 H 
ATOM     81 H81  LIG A   1      18.714  26.165  15.572  1.00 20.00    +0.030 H 
ATOM     82 H82  LIG A   1      17.913  27.298  14.483  1.00 20.00    +0.030 H 
ATOM     83 H83  LIG A   1      20.139  28.273  13.859  1.00 20.00    +0.043 H 
ATOM     84 H84  LIG A   1      20.944  27.224  15.011  1.00 20.00    +0.043 H 
ATOM     85 H85  LIG A   1      18.804  29.127  15.723  1.00 20.00    +0.122 HD
ATOM     86 H86  LIG A   1      19.025  27.515  17.386  1.00 20.00    +0.043 H 
ATOM     87 H87  LIG A   1      20.779  27.682  17.329  1.00 20.00    +0.043 H 
ATOM     88 H88  LIG A   1      19.802  28.881  19.232  1.00 20.00    +0.028 H 
ATOM     89 H89  LIG A   1      20.713  29.934  18.169  1.00 20.00    +0.028 H 
ATOM     90 H90  LIG A   1      18.709  30.984  17.307  1.00 20.00    +0.028 H 
ATOM     91 H91  LIG A   1      18.679  30.977  19.054  1.00 20.00    +0.028 H 
ATOM     92 H92  LIG A   1      17.199  28.828  18.882  1.00 20.00    +0.043 H 
ATOM     93 H93  LIG A   1      16.484  30.405  18.542  1.00 20.00    +0.043 H 
ATOM     94 H94  LIG A   1      16.678  30.050  16.262  1.00 20.00    +0.118 HD
ATOM     95 H95  LIG A   1      15.890  28.793  16.924  1.00 20.00    +0.118 HD
ATOM     96 H96  LIG A   1      19.446  24.685  11.097  1.00 20.00    +0.064 H 
ATOM     97 H97  LIG A   1      20.059  22.894   9.582  1.00 20.00    +0.063 H 
ATOM     98 H98  LIG A   1      23.685  20.783  10.515  1.00 20.00    +0.105 H 
ATOM     99 H99  LIG A   1      24.043  17.503   7.499  1.00 20.00    +0.068 H 
ENDROOT
TORSDOF 0
                                                                                                      
ENDMDL
MODEL 2
REMARK VINA RESULT:   -11.244      3.783     12.321
REMARK INTER + INTRA:         -11.244
REMARK INTER:                 -11.244
REMARK INTRA:                   0.000
REMARK UNBOUND:                 0.000
ROOT
ATOM      1 C1   LIG A   1      21.297  19.448  12.490  1.00 20.00    -0.056 C 
ATOM      2 C2   LIG A   1      21.332  20.674  11.595  1.00 20.00    -0.002 C 
ATOM      3 S3   LIG A   1      20.181  20.509  10.199  1.00 20.00    -0.087 SA
ATOM      4 C4   LIG A   1      21.096  19.410   9.163  1.00 20.00    +0.205 C 
ATOM      5 O5   LIG A   1      22.292  19.202   9.334  1.00 20.00    -0.285 OA
ATOM      6 C6   LIG A   1      20.292  18.843   7.975  1.00 20.00    +0.074 C 
ATOM      7 N7   LIG A   1      20.491  19.710   6.793  1.00 20.00    -0.321 NA
ATOM      8 C8   LIG A   1      20.749  17.407   7.672  1.00 20.00    -0.028 C 
ATOM      9 C9   LIG A   1      19.738  16.563   6.887  1.00 20.00    -0.034 C 
ATOM     10 C10  LIG A   1      19.347  17.131   5.522  1.00 20.00    +0.018 C 
ATOM     11 N11  LIG A   1      18.619  16.138   4.741  1.00 20.00    -0.357 NA
ATOM     12 C12  LIG A   1      17.332  15.821   5.005  1.00 20.00    +0.185 C 
ATOM     13 N13  LIG A   1      16.577  16.411   5.855  1.00 20.00    -0.270 NA
ATOM     14 N14  LIG A   1      16.917  14.792   4.238  1.00 20.00    -0.370 NA
ATOM     15 N15  LIG A   1      25.442  24.090  16.439  1.00 20.00    -0.289 NA
ATOM     16 C16  LIG A   1      24.776  23.515  15.492  1.00 20.00    +0.092 C 
ATOM     17 N17  LIG A   1      25.460  23.043  14.414  1.00 20.00    -0.388 NA
ATOM     18 C18  LIG A   1      23.273  23.356  15.553  1.00 20.00    +0.022 C 
ATOM     19 C19  LIG A   1      22.579  24.445  14.738  1.00 20.00    +0.022 C 
ATOM     20 N20  LIG A   1      22.743  24.261  13.296  1.00 20.00    -0.384 NA
ATOM     21 C21  LIG A   1      22.115  23.231  12.599  1.00 20.00    +0.038 A 
ATOM     22 C22  LIG A   1      20.959  22.581  13.051  1.00 20.00    -0.038 A 
ATOM     23 C23  LIG A   1      20.336  21.590  12.283  1.00 20.00    -0.045 A 
ATOM     24 C24  LIG A   1      20.848  21.259  11.030  1.00 20.00    +0.065 A 
ATOM     25 C25  LIG A   1      20.213  20.217  10.204  1.00 20.00    +0.200 C 
ATOM     26 O26  LIG A   1      19.240  19.600  10.623  1.00 20.00    -0.288 OA
ATOM     27 C27  LIG A   1      20.820  19.967   8.866  1.00 20.00    +0.065 C 
ATOM     28 C28  LIG A   1      20.295  18.945   7.941  1.00 20.00    -0.011 A 
ATOM     29 C29  LIG A   1      20.034  19.244   6.599  1.00 20.00    -0.052 A 
ATOM     30 C30  LIG A   1      19.536  18.263   5.733  1.00 20.00    -0.038 A 
ATOM     31 C31  LIG A   1      19.255  16.965   6.181  1.00 20.00    +0.034 A 
ATOM     32 N32  LIG A   1      18.814  16.019   5.246  1.00 20.00    -0.385 NA
ATOM     33 C33  LIG A   1      18.205  14.778   5.719  1.00 20.00    +0.016 C 
ATOM     34 C34  LIG A   1      17.676  13.955   4.542  1.00 20.00    -0.023 C 
ATOM     35 C35  LIG A   1      18.808  13.390   3.679  1.00 20.00    -0.003 C 
ATOM     36 N36  LIG A   1      18.340  12.474   2.632  1.00 20.00    -0.317 NA
ATOM     37 C37  LIG A   1      17.653  13.166   1.542  1.00 20.00    -0.005 C 
ATOM     38 C38  LIG A   1      17.369  12.218   0.373  1.00 20.00    -0.039 C 
ATOM     39 C39  LIG A   1      16.601  10.925   0.682  1.00 20.00    -0.040 C 
ATOM     40 C40  LIG A   1      15.268  11.111   1.410  1.00 20.00    -0.008 C 
ATOM     41 N41  LIG A   1      15.446  11.247   2.854  1.00 20.00    -0.330 NA
ATOM     42 C42  LIG A   1      19.556  16.663   7.512  1.00 20.00    -0.038 A 
ATOM     43 C43  LIG A   1      20.053  17.641   8.385  1.00 20.00    -0.052 A 
ATOM     44 C44  LIG A   1      21.901  20.693   8.543  1.00 20.00    +0.103 C 
ATOM     45 O45  LIG A   1      22.506  21.660   9.310  1.00 20.00    -0.463 OA
ATOM     46 C46  LIG A   1      21.965  21.924  10.541  1.00 20.00    +0.139 A 
ATOM     47 C47  LIG A   1      22.584  22.910  11.315  1.00 20.00    +0.005 A 
ATOM     48 H48  LIG A   1      21.965  19.594  13.347  1.00 20.00    +0.024 H 
ATOM     49 H49  LIG A   1      20.291  19.268  12.885  1.00 20.00    +0.024 H 
ATOM     50 H50  LIG A   1      21.630  18.547  11.965  1.00 20.00    +0.024 H 
ATOM     51 H51  LIG A   1      21.020  21.547  12.176  1.00 20.00    +0.038 H 
ATOM     52 H52  LIG A   1      22.349  20.870  11.239  1.00 20.00    +0.038 H 
ATOM     53 H53  LIG A   1      19.227  18.827   8.236  1.00 20.00    +0.055 H 
ATOM     54 H54  LIG A   1      20.149  20.648   7.010  1.00 20.00    +0.119 HD
ATOM     55 H55  LIG A   1      21.494  19.811   6.623  1.00 20.00    +0.119 HD
ATOM     56 H56  LIG A   1      21.709  17.417   7.138  1.00 20.00    +0.029 H 
ATOM     57 H57  LIG A   1      20.944  16.885   8.619  1.00 20.00    +0.029 H 
ATOM     58 H58  LIG A   1      20.166  15.560   6.755  1.00 20.00    +0.029 H 
ATOM     59 H59  LIG A   1      18.838  16.427   7.499  1.00 20.00    +0.029 H 
ATOM     60 H60  LIG A   1      20.249  17.401   4.959  1.00 20.00    +0.049 H 
ATOM     61 H61  LIG A   1      18.741  18.037   5.624  1.00 20.00    +0.049 H 
ATOM     62 H62  LIG A   1      19.188  15.337   4.492  1.00 20.00    +0.163 HD
ATOM     63 H63  LIG A   1      15.661  15.965   5.872  1.00 20.00    +0.191 HD
ATOM     64 H64  LIG A   1      15.912  14.684   4.199  1.00 20.00    +0.159 HD
ATOM     65 H65  LIG A   1      17.303  14.838   3.301  1.00 20.00    +0.159 HD
ATOM     66 H66  LIG A   1      24.820  24.403  17.192  1.00 20.00    +0.189 HD
ATOM     67 H67  LIG A   1      26.456  22.967  14.599  1.00 20.00    +0.157 HD
ATOM     68 H68  LIG A   1      25.070  22.233  13.944  1.00 20.00    +0.157 HD
ATOM     69 H69  LIG A   1      23.009  22.352  15.202  1.00 20.00    +0.037 H 
ATOM     70 H70  LIG A   1      22.957  23.431  16.599  1.00 20.00    +0.037 H 
ATOM     71 H71  LIG A   1      23.003  25.422  14.996  1.00 20.00    +0.049 H 
ATOM     72 H72  LIG A   1      21.517  24.504  15.002  1.00 20.00    +0.049 H 
ATOM     73 H73  LIG A   1      23.715  24.395  13.011  1.00 20.00    +0.160 HD
ATOM     74 H74  LIG A   1      20.515  22.830  14.010  1.00 20.00    +0.064 H 
ATOM     75 H75  LIG A   1      19.447  21.091  12.663  1.00 20.00    +0.063 H 
ATOM     76 H76  LIG A   1      20.207  20.244   6.207  1.00 20.00    +0.063 H 
ATOM     77 H77  LIG A   1      19.363  18.527   4.692  1.00 20.00    +0.064 H 
ATOM     78 H78  LIG A   1      18.280  16.464   4.503  1.00 20.00    +0.160 HD
ATOM     79 H79  LIG A   1      18.933  14.178   6.279  1.00 20.00    +0.049 H 
ATOM     80 H80  LIG A   1      17.365  15.010   6.385  1.00 20.00    +0.049 H 
ATOM     81 H81  LIG A   1      17.003  14.574   3.937  1.00 20.00    +0.030 H 
ATOM     82 H82  LIG A   1      17.079  13.128   4.945  1.00 20.00    +0.030 H 
ATOM     83 H83  LIG A   1      19.490  12.820   4.322  1.00 20.00    +0.043 H 
ATOM     84 H84  LIG A   1      19.406  14.194   3.236  1.00 20.00    +0.043 H 
ATOM     85 H85  LIG A   1      17.660  11.823   3.038  1.00 20.00    +0.122 HD
ATOM     86 H86  LIG A   1      16.714  13.610   1.888  1.00 20.00    +0.043 H 
ATOM     87 H87  LIG A   1      18.277  13.986   1.165  1.00 20.00    +0.043 H 
ATOM     88 H88  LIG A   1      16.811  12.779  -0.388  1.00 20.00    +0.028 H 
ATOM     89 H89  LIG A   1      18.321  11.939  -0.097  1.00 20.00    +0.028 H 
ATOM     90 H90  LIG A   1      17.243  10.229   1.235  1.00 20.00    +0.028 H 
ATOM     91 H91  LIG A   1      16.395  10.434  -0.278  1.00 20.00    +0.028 H 
ATOM     92 H92  LIG A   1      14.739  11.986   1.019  1.00 20.00    +0.043 H 
ATOM     93 H93  LIG A   1      14.634  10.237   1.226  1.00 20.00    +0.043 H 
ATOM     94 H94  LIG A   1      15.792  10.361   3.226  1.00 20.00    +0.118 HD
ATOM     95 H95  LIG A   1      14.531  11.383   3.286  1.00 20.00    +0.118 HD
ATOM     96 H96  LIG A   1      19.406  15.665   7.909  1.00 20.00    +0.064 H 
ATOM     97 H97  LIG A   1      20.248  17.365   9.420  1.00 20.00    +0.063 H 
ATOM     98 H98  LIG A   1      22.445  20.585   7.610  1.00 20.00    +0.105 H 
ATOM     99 H99  LIG A   1      23.446  23.434  10.906  1.00 20.00    +0.068 H 
ENDROOT
TORSDOF 0
                                                                                                      
ENDMDL
MODEL 3
REMARK VINA RESULT:   -11.209      3.008     11.747
REMARK INTER + INTRA:         -11.209
REMARK INTER:                 -11.209
REMARK INTRA:                   0.000
REMARK UNBOUND:                 0.000
ROOT
ATOM      1 C1   LIG A   1      21.928  26.691  11.983  1.00 20.00    -0.056 C 
ATOM      2 C2   LIG A   1      21.754  25.912  13.275  1.00 20.00    -0.002 C 
ATOM      3 S3   LIG A   1      22.008  24.132  13.015  1.00 20.00    -0.087 SA
ATOM      4 C4   LIG A   1      20.475  23.703  12.249  1.00 20.00    +0.205 C 
ATOM      5 O5   LIG A   1      19.501  24.448  12.283  1.00 20.00    -0.285 OA
ATOM      6 C6   LIG A   1      20.442  22.282  11.650  1.00 20.00    +0.074 C 
ATOM      7 N7   LIG A   1      19.906  21.340  12.658  1.00 20.00    -0.321 NA
ATOM      8 C8   LIG A   1      19.571  22.268  10.384  1.00 20.00    -0.028 C 
ATOM      9 C9   LIG A   1      19.842  21.098   9.430  1.00 20.00    -0.034 C 
ATOM     10 C10  LIG A   1      19.644  19.710  10.041  1.00 20.00    +0.018 C 
ATOM     11 N11  LIG A   1      19.644  18.686   9.002  1.00 20.00    -0.357 NA
ATOM     12 C12  LIG A   1      20.781  18.282   8.393  1.00 20.00    +0.185 C 
ATOM     13 N13  LIG A   1      21.968  18.638   8.718  1.00 20.00    -0.270 NA
ATOM     14 N14  LIG A   1      20.516  17.427   7.385  1.00 20.00    -0.370 NA
ATOM     15 N15  LIG A   1      21.449  32.102  16.964  1.00 20.00    -0.289 NA
ATOM     16 C16  LIG A   1      21.415  30.959  16.362  1.00 20.00    +0.092 C 
ATOM     17 N17  LIG A   1      20.205  30.369  16.161  1.00 20.00    -0.388 NA
ATOM     18 C18  LIG A   1      22.672  30.269  15.883  1.00 20.00    +0.022 C 
ATOM     19 C19  LIG A   1      23.119  29.200  16.878  1.00 20.00    +0.022 C 
ATOM     20 N20  LIG A   1      22.237  28.032  16.884  1.00 20.00    -0.384 NA
ATOM     21 C21  LIG A   1      22.185  27.132  15.822  1.00 20.00    +0.038 A 
ATOM     22 C22  LIG A   1      23.224  26.962  14.897  1.00 20.00    -0.038 A 
ATOM     23 C23  LIG A   1      23.143  26.002  13.882  1.00 20.00    -0.045 A 
ATOM     24 C24  LIG A   1      22.025  25.172  13.800  1.00 20.00    +0.065 A 
ATOM     25 C25  LIG A   1      21.914  24.157  12.737  1.00 20.00    +0.200 C 
ATOM     26 O26  LIG A   1      22.790  24.048  11.887  1.00 20.00    -0.288 OA
ATOM     27 C27  LIG A   1      20.695  23.299  12.762  1.00 20.00    +0.065 C 
ATOM     28 C28  LIG A   1      20.447  22.252  11.754  1.00 20.00    -0.011 A 
ATOM     29 C29  LIG A   1      20.087  20.953  12.128  1.00 20.00    -0.052 A 
ATOM     30 C30  LIG A   1      19.855  19.969  11.159  1.00 20.00    -0.038 A 
ATOM     31 C31  LIG A   1      20.002  20.239   9.791  1.00 20.00    +0.034 A 
ATOM     32 N32  LIG A   1      19.696  19.224   8.876  1.00 20.00    -0.385 NA
ATOM     33 C33  LIG A   1      20.145  19.352   7.492  1.00 20.00    +0.016 C 
ATOM     34 C34  LIG A   1      19.826  18.081   6.702  1.00 20.00    -0.023 C 
ATOM     35 C35  LIG A   1      18.321  17.901   6.482  1.00 20.00    -0.003 C 
ATOM     36 N36  LIG A   1      17.991  16.774   5.602  1.00 20.00    -0.317 NA
ATOM     37 C37  LIG A   1      18.204  15.476   6.242  1.00 20.00    -0.005 C 
ATOM     38 C38  LIG A   1      17.653  14.335   5.382  1.00 20.00    -0.039 C 
ATOM     39 C39  LIG A   1      18.144  14.243   3.930  1.00 20.00    -0.040 C 
ATOM     40 C40  LIG A   1      19.663  14.212   3.752  1.00 20.00    -0.008 C 
ATOM     41 N41  LIG A   1      20.246  15.552   3.772  1.00 20.00    -0.330 NA
ATOM     42 C42  LIG A   1      20.322  21.549   9.425  1.00 20.00    -0.038 A 
ATOM     43 C43  LIG A   1      20.558  22.538  10.390  1.00 20.00    -0.052 A 
ATOM     44 C44  LIG A   1      19.799  23.543  13.731  1.00 20.00    +0.103 C 
ATOM     45 O45  LIG A   1      19.890  24.495  14.720  1.00 20.00    -0.463 OA
ATOM     46 C46  LIG A   1      21.005  25.291  14.733  1.00 20.00    +0.139 A 
ATOM     47 C47  LIG A   1      21.092  26.255  15.742  1.00 20.00    +0.005 A 
ATOM     48 H48  LIG A   1      21.816  27.764  12.178  1.00 20.00    +0.024 H 
ATOM     49 H49  LIG A   1      22.925  26.538  11.554  1.00 20.00    +0.024 H 
ATOM     50 H50  LIG A   1      21.180  26.415  11.233  1.00 20.00    +0.024 H 
ATOM     51 H51  LIG A   1      22.504  26.248  13.997  1.00 20.00    +0.038 H 
ATOM     52 H52  LIG A   1      20.771  26.104  13.718  1.00 20.00    +0.038 H 
ATOM     53 H53  LIG A   1      21.461  21.981  11.382  1.00 20.00    +0.055 H 
ATOM     54 H54  LIG A   1      20.520  21.344  13.474  1.00 20.00    +0.119 HD
ATOM     55 H55  LIG A   1      19.002  21.689  12.987  1.00 20.00    +0.119 HD
ATOM     56 H56  LIG A   1      18.507  22.280  10.653  1.00 20.00    +0.029 H 
ATOM     57 H57  LIG A   1      19.743  23.194   9.819  1.00 20.00    +0.029 H 
ATOM     58 H58  LIG A   1      19.182  21.211   8.561  1.00 20.00    +0.029 H 
ATOM     59 H59  LIG A   1      20.866  21.186   9.044  1.00 20.00    +0.029 H 
ATOM     60 H60  LIG A   1      18.676  19.664  10.554  1.00 20.00    +0.049 H 
ATOM     61 H61  LIG A   1      20.418  19.484  10.782  1.00 20.00    +0.049 H 
ATOM     62 H62  LIG A   1      18.856  18.765   8.371  1.00 20.00    +0.163 HD
ATOM     63 H63  LIG A   1      22.643  18.205   8.088  1.00 20.00    +0.191 HD
ATOM     64 H64  LIG A   1      21.317  16.897   7.070  1.00 20.00    +0.159 HD
ATOM     65 H65  LIG A   1      19.747  16.804   7.609  1.00 20.00    +0.159 HD
ATOM     66 H66  LIG A   1      22.411  32.442  17.058  1.00 20.00    +0.189 HD
ATOM     67 H67  LIG A   1      19.437  31.025  16.280  1.00 20.00    +0.157 HD
ATOM     68 H68  LIG A   1      20.114  29.781  15.340  1.00 20.00    +0.157 HD
ATOM     69 H69  LIG A   1      22.487  29.849  14.888  1.00 20.00    +0.037 H 
ATOM     70 H70  LIG A   1      23.463  31.019  15.779  1.00 20.00    +0.037 H 
ATOM     71 H71  LIG A   1      23.117  29.620  17.891  1.00 20.00    +0.049 H 
ATOM     72 H72  LIG A   1      24.154  28.902  16.681  1.00 20.00    +0.049 H 
ATOM     73 H73  LIG A   1      21.313  28.265  17.250  1.00 20.00    +0.160 HD
ATOM     74 H74  LIG A   1      24.122  27.570  14.945  1.00 20.00    +0.064 H 
ATOM     75 H75  LIG A   1      23.958  25.898  13.168  1.00 20.00    +0.063 H 
ATOM     76 H76  LIG A   1      19.987  20.682  13.177  1.00 20.00    +0.063 H 
ATOM     77 H77  LIG A   1      19.557  18.976  11.487  1.00 20.00    +0.064 H 
ATOM     78 H78  LIG A   1      19.891  18.307   9.272  1.00 20.00    +0.160 HD
ATOM     79 H79  LIG A   1      19.663  20.208   7.006  1.00 20.00    +0.049 H 
ATOM     80 H80  LIG A   1      21.231  19.510   7.469  1.00 20.00    +0.049 H 
ATOM     81 H81  LIG A   1      20.246  17.212   7.222  1.00 20.00    +0.030 H 
ATOM     82 H82  LIG A   1      20.329  18.148   5.730  1.00 20.00    +0.030 H 
ATOM     83 H83  LIG A   1      17.924  18.806   6.007  1.00 20.00    +0.043 H 
ATOM     84 H84  LIG A   1      17.792  17.801   7.437  1.00 20.00    +0.043 H 
ATOM     85 H85  LIG A   1      18.607  16.800   4.783  1.00 20.00    +0.122 HD
ATOM     86 H86  LIG A   1      19.268  15.304   6.437  1.00 20.00    +0.043 H 
ATOM     87 H87  LIG A   1      17.689  15.445   7.210  1.00 20.00    +0.043 H 
ATOM     88 H88  LIG A   1      17.886  13.389   5.887  1.00 20.00    +0.028 H 
ATOM     89 H89  LIG A   1      16.557  14.404   5.362  1.00 20.00    +0.028 H 
ATOM     90 H90  LIG A   1      17.707  15.053   3.333  1.00 20.00    +0.028 H 
ATOM     91 H91  LIG A   1      17.736  13.315   3.508  1.00 20.00    +0.028 H 
ATOM     92 H92  LIG A   1      20.126  13.596   4.529  1.00 20.00    +0.043 H 
ATOM     93 H93  LIG A   1      19.902  13.751   2.786  1.00 20.00    +0.043 H 
ATOM     94 H94  LIG A   1      19.926  16.061   2.946  1.00 20.00    +0.118 HD
ATOM     95 H95  LIG A   1      21.258  15.471   3.665  1.00 20.00    +0.118 HD
ATOM     96 H96  LIG A   1      20.407  21.835   8.381  1.00 20.00    +0.064 H 
ATOM     97 H97  LIG A   1      20.831  23.537  10.056  1.00 20.00    +0.063 H 
ATOM     98 H98  LIG A   1      18.864  23.005  13.839  1.00 20.00    +0.105 H 
ATOM     99 H99  LIG A   1      20.291  26.319  16.477  1.00 20.00    +0.068 H 
ENDROOT
TORSDOF 0
                                                                                                      
ENDMDL
MODEL 4
REMARK VINA RESULT:   -11.009      2.979      4.905
REMARK INTER + INTRA:         -11.009
REMARK INTER:                 -11.009
REMARK INTRA:                   0.000
REMARK UNBOUND:                 0.000
ROOT
ATOM      1 C1   LIG A   1      20.265  14.542   8.223  1.00 20.00    -0.056 C 
ATOM      2 C2   LIG A   1      20.179  15.320   6.922  1.00 20.00    -0.002 C 
ATOM      3 S3   LIG A   1      20.879  16.987   7.098  1.00 20.00    -0.087 SA
ATOM      4 C4   LIG A   1      19.565  17.791   7.963  1.00 20.00    +0.205 C 
ATOM      5 O5   LIG A   1      18.441  17.307   8.031  1.00 20.00    -0.285 OA
ATOM      6 C6   LIG A   1      19.929  19.185   8.513  1.00 20.00    +0.074 C 
ATOM      7 N7   LIG A   1      19.557  20.214   7.517  1.00 20.00    -0.321 NA
ATOM      8 C8   LIG A   1      19.196  19.432   9.841  1.00 20.00    -0.028 C 
ATOM      9 C9   LIG A   1      19.822  20.514  10.729  1.00 20.00    -0.034 C 
ATOM     10 C10  LIG A   1      19.917  21.898  10.087  1.00 20.00    +0.018 C 
ATOM     11 N11  LIG A   1      20.252  22.907  11.086  1.00 20.00    -0.357 NA
ATOM     12 C12  LIG A   1      21.500  23.029  11.592  1.00 20.00    +0.185 C 
ATOM     13 N13  LIG A   1      22.533  22.388  11.189  1.00 20.00    -0.270 NA
ATOM     14 N14  LIG A   1      21.535  23.939  12.586  1.00 20.00    -0.370 NA
ATOM     15 N15  LIG A   1      18.072   9.338   3.486  1.00 20.00    -0.289 NA
ATOM     16 C16  LIG A   1      18.368  10.464   4.049  1.00 20.00    +0.092 C 
ATOM     17 N17  LIG A   1      17.359  11.335   4.321  1.00 20.00    -0.388 NA
ATOM     18 C18  LIG A   1      19.790  10.831   4.406  1.00 20.00    +0.022 C 
ATOM     19 C19  LIG A   1      20.400  11.742   3.342  1.00 20.00    +0.022 C 
ATOM     20 N20  LIG A   1      19.831  13.091   3.363  1.00 20.00    -0.384 NA
ATOM     21 C21  LIG A   1      20.088  13.992   4.393  1.00 20.00    +0.038 A 
ATOM     22 C22  LIG A   1      21.210  13.917   5.229  1.00 20.00    -0.038 A 
ATOM     23 C23  LIG A   1      21.449  14.883   6.213  1.00 20.00    -0.045 A 
ATOM     24 C24  LIG A   1      20.578  15.962   6.352  1.00 20.00    +0.065 A 
ATOM     25 C25  LIG A   1      20.805  16.990   7.383  1.00 20.00    +0.200 C 
ATOM     26 O26  LIG A   1      21.749  16.894   8.159  1.00 20.00    -0.288 OA
ATOM     27 C27  LIG A   1      19.834  18.120   7.421  1.00 20.00    +0.065 C 
ATOM     28 C28  LIG A   1      19.933  19.211   8.408  1.00 20.00    -0.011 A 
ATOM     29 C29  LIG A   1      19.870  20.554   8.017  1.00 20.00    -0.052 A 
ATOM     30 C30  LIG A   1      19.965  21.579   8.966  1.00 20.00    -0.038 A 
ATOM     31 C31  LIG A   1      20.155  21.302  10.327  1.00 20.00    +0.034 A 
ATOM     32 N32  LIG A   1      20.183  22.375  11.227  1.00 20.00    -0.385 NA
ATOM     33 C33  LIG A   1      20.700  22.162  12.576  1.00 20.00    +0.016 C 
ATOM     34 C34  LIG A   1      20.767  23.485  13.343  1.00 20.00    -0.023 C 
ATOM     35 C35  LIG A   1      19.374  24.032  13.671  1.00 20.00    -0.003 C 
ATOM     36 N36  LIG A   1      19.402  25.218  14.533  1.00 20.00    -0.317 NA
ATOM     37 C37  LIG A   1      19.871  26.414  13.834  1.00 20.00    -0.005 C 
ATOM     38 C38  LIG A   1      19.686  27.669  14.693  1.00 20.00    -0.039 C 
ATOM     39 C39  LIG A   1      20.304  27.660  16.099  1.00 20.00    -0.040 C 
ATOM     40 C40  LIG A   1      21.795  27.320  16.159  1.00 20.00    -0.008 C 
ATOM     41 N41  LIG A   1      22.030  25.878  16.142  1.00 20.00    -0.330 NA
ATOM     42 C42  LIG A   1      20.176  19.959  10.714  1.00 20.00    -0.038 A 
ATOM     43 C43  LIG A   1      20.084  18.928   9.769  1.00 20.00    -0.052 A 
ATOM     44 C44  LIG A   1      18.828  18.088   6.533  1.00 20.00    +0.103 C 
ATOM     45 O45  LIG A   1      18.603  17.129   5.575  1.00 20.00    -0.463 OA
ATOM     46 C46  LIG A   1      19.486  16.083   5.503  1.00 20.00    +0.139 A 
ATOM     47 C47  LIG A   1      19.251  15.112   4.525  1.00 20.00    +0.005 A 
ATOM     48 H48  LIG A   1      19.880  13.526   8.074  1.00 20.00    +0.024 H 
ATOM     49 H49  LIG A   1      21.301  14.452   8.568  1.00 20.00    +0.024 H 
ATOM     50 H50  LIG A   1      19.672  15.005   9.017  1.00 20.00    +0.024 H 
ATOM     51 H51  LIG A   1      20.763  14.799   6.156  1.00 20.00    +0.038 H 
ATOM     52 H52  LIG A   1      19.146  15.368   6.562  1.00 20.00    +0.038 H 
ATOM     53 H53  LIG A   1      21.010  19.231   8.692  1.00 20.00    +0.055 H 
ATOM     54 H54  LIG A   1      20.081  20.047   6.656  1.00 20.00    +0.119 HD
ATOM     55 H55  LIG A   1      18.571  20.093   7.271  1.00 20.00    +0.119 HD
ATOM     56 H56  LIG A   1      18.142  19.677   9.655  1.00 20.00    +0.029 H 
ATOM     57 H57  LIG A   1      19.184  18.500  10.423  1.00 20.00    +0.029 H 
ATOM     58 H58  LIG A   1      19.228  20.579  11.650  1.00 20.00    +0.029 H 
ATOM     59 H59  LIG A   1      20.821  20.184  11.039  1.00 20.00    +0.029 H 
ATOM     60 H60  LIG A   1      18.950  22.173   9.649  1.00 20.00    +0.049 H 
ATOM     61 H61  LIG A   1      20.659  21.917   9.282  1.00 20.00    +0.049 H 
ATOM     62 H62  LIG A   1      19.523  23.034  11.778  1.00 20.00    +0.163 HD
ATOM     63 H63  LIG A   1      23.343  22.652  11.750  1.00 20.00    +0.191 HD
ATOM     64 H64  LIG A   1      22.465  24.260  12.820  1.00 20.00    +0.159 HD
ATOM     65 H65  LIG A   1      20.925  24.727  12.400  1.00 20.00    +0.159 HD
ATOM     66 H66  LIG A   1      18.912   8.770   3.331  1.00 20.00    +0.189 HD
ATOM     67 H67  LIG A   1      16.447  10.886   4.284  1.00 20.00    +0.157 HD
ATOM     68 H68  LIG A   1      17.482  11.941   5.125  1.00 20.00    +0.157 HD
ATOM     69 H69  LIG A   1      19.796  11.298   5.397  1.00 20.00    +0.037 H 
ATOM     70 H70  LIG A   1      20.381   9.911   4.475  1.00 20.00    +0.037 H 
ATOM     71 H71  LIG A   1      20.212  11.320   2.348  1.00 20.00    +0.049 H 
ATOM     72 H72  LIG A   1      21.489  11.780   3.448  1.00 20.00    +0.049 H 
ATOM     73 H73  LIG A   1      18.851  13.086   3.077  1.00 20.00    +0.160 HD
ATOM     74 H74  LIG A   1      21.926  13.106   5.134  1.00 20.00    +0.064 H 
ATOM     75 H75  LIG A   1      22.322  14.794   6.858  1.00 20.00    +0.063 H 
ATOM     76 H76  LIG A   1      19.752  20.824   6.970  1.00 20.00    +0.063 H 
ATOM     77 H77  LIG A   1      19.892  22.610   8.627  1.00 20.00    +0.064 H 
ATOM     78 H78  LIG A   1      20.561  23.210  10.785  1.00 20.00    +0.160 HD
ATOM     79 H79  LIG A   1      20.066  21.458  13.128  1.00 20.00    +0.049 H 
ATOM     80 H80  LIG A   1      21.713  21.743  12.521  1.00 20.00    +0.049 H 
ATOM     81 H81  LIG A   1      21.340  24.216  12.762  1.00 20.00    +0.030 H 
ATOM     82 H82  LIG A   1      21.317  23.311  14.276  1.00 20.00    +0.030 H 
ATOM     83 H83  LIG A   1      18.809  23.259  14.207  1.00 20.00    +0.043 H 
ATOM     84 H84  LIG A   1      18.808  24.244  12.757  1.00 20.00    +0.043 H 
ATOM     85 H85  LIG A   1      20.059  25.054  15.303  1.00 20.00    +0.122 HD
ATOM     86 H86  LIG A   1      20.924  26.317  13.552  1.00 20.00    +0.043 H 
ATOM     87 H87  LIG A   1      19.300  26.556  12.908  1.00 20.00    +0.043 H 
ATOM     88 H88  LIG A   1      20.101  28.521  14.138  1.00 20.00    +0.028 H 
ATOM     89 H89  LIG A   1      18.613  27.871  14.799  1.00 20.00    +0.028 H 
ATOM     90 H90  LIG A   1      19.735  26.991  16.756  1.00 20.00    +0.028 H 
ATOM     91 H91  LIG A   1      20.170  28.666  16.518  1.00 20.00    +0.028 H 
ATOM     92 H92  LIG A   1      22.327  27.792  15.327  1.00 20.00    +0.043 H 
ATOM     93 H93  LIG A   1      22.218  27.723  17.086  1.00 20.00    +0.043 H 
ATOM     94 H94  LIG A   1      21.666  25.476  17.007  1.00 20.00    +0.118 HD
ATOM     95 H95  LIG A   1      23.037  25.710  16.168  1.00 20.00    +0.118 HD
ATOM     96 H96  LIG A   1      20.275  19.677  11.757  1.00 20.00    +0.064 H 
ATOM     97 H97  LIG A   1      20.132  17.898  10.116  1.00 20.00    +0.063 H 
ATOM     98 H98  LIG A   1      18.046  18.838   6.478  1.00 20.00    +0.105 H 
ATOM     99 H99  LIG A   1      18.401  15.235   3.857  1.00 20.00    +0.068 H 
ENDROOT
TORSDOF 0
                                                                                                      
ENDMDL
MODEL 5
REMARK VINA RESULT:   -10.815      3.258     12.539
REMARK INTER + INTRA:         -10.815
REMARK INTER:                 -10.815
REMARK INTRA:                   0.000
REMARK UNBOUND:                 0.000
ROOT
ATOM      1 C1   LIG A   1      16.463  27.428  15.102  1.00 20.00    -0.056 C 
ATOM      2 C2   LIG A   1      17.867  27.942  15.370  1.00 20.00    -0.002 C 
ATOM      3 S3   LIG A   1      18.986  27.565  13.989  1.00 20.00    -0.087 SA
ATOM      4 C4   LIG A   1      19.282  25.849  14.282  1.00 20.00    +0.205 C 
ATOM      5 O5   LIG A   1      19.011  25.317  15.353  1.00 20.00    -0.285 OA
ATOM      6 C6   LIG A   1      20.009  25.126  13.128  1.00 20.00    +0.074 C 
ATOM      7 N7   LIG A   1      21.467  25.156  13.376  1.00 20.00    -0.321 NA
ATOM      8 C8   LIG A   1      19.510  23.676  13.024  1.00 20.00    -0.028 C 
ATOM      9 C9   LIG A   1      19.751  23.010  11.663  1.00 20.00    -0.034 C 
ATOM     10 C10  LIG A   1      21.217  22.939  11.233  1.00 20.00    +0.018 C 
ATOM     11 N11  LIG A   1      21.373  22.050  10.086  1.00 20.00    -0.357 NA
ATOM     12 C12  LIG A   1      20.999  22.417   8.840  1.00 20.00    +0.185 C 
ATOM     13 N13  LIG A   1      20.593  23.581   8.494  1.00 20.00    -0.270 NA
ATOM     14 N14  LIG A   1      21.121  21.390   7.974  1.00 20.00    -0.370 NA
ATOM     15 N15  LIG A   1      15.470  31.442  21.203  1.00 20.00    -0.289 NA
ATOM     16 C16  LIG A   1      15.985  30.779  20.220  1.00 20.00    +0.092 C 
ATOM     17 N17  LIG A   1      16.648  29.623  20.497  1.00 20.00    -0.388 NA
ATOM     18 C18  LIG A   1      15.871  31.252  18.788  1.00 20.00    +0.022 C 
ATOM     19 C19  LIG A   1      17.144  31.973  18.351  1.00 20.00    +0.022 C 
ATOM     20 N20  LIG A   1      18.275  31.061  18.173  1.00 20.00    -0.384 NA
ATOM     21 C21  LIG A   1      18.338  30.148  17.123  1.00 20.00    +0.038 A 
ATOM     22 C22  LIG A   1      17.628  30.294  15.923  1.00 20.00    -0.038 A 
ATOM     23 C23  LIG A   1      17.773  29.375  14.878  1.00 20.00    -0.045 A 
ATOM     24 C24  LIG A   1      18.662  28.309  15.009  1.00 20.00    +0.065 A 
ATOM     25 C25  LIG A   1      18.828  27.326  13.924  1.00 20.00    +0.200 C 
ATOM     26 O26  LIG A   1      18.162  27.412  12.899  1.00 20.00    -0.288 OA
ATOM     27 C27  LIG A   1      19.830  26.246  14.153  1.00 20.00    +0.065 C 
ATOM     28 C28  LIG A   1      20.091  25.189  13.159  1.00 20.00    -0.011 A 
ATOM     29 C29  LIG A   1      21.395  24.867  12.764  1.00 20.00    -0.052 A 
ATOM     30 C30  LIG A   1      21.626  23.860  11.818  1.00 20.00    -0.038 A 
ATOM     31 C31  LIG A   1      20.569  23.164  11.216  1.00 20.00    +0.034 A 
ATOM     32 N32  LIG A   1      20.877  22.130  10.322  1.00 20.00    -0.385 NA
ATOM     33 C33  LIG A   1      19.834  21.615   9.440  1.00 20.00    +0.016 C 
ATOM     34 C34  LIG A   1      20.413  20.593   8.459  1.00 20.00    -0.023 C 
ATOM     35 C35  LIG A   1      20.838  19.299   9.160  1.00 20.00    -0.003 C 
ATOM     36 N36  LIG A   1      21.258  18.244   8.230  1.00 20.00    -0.317 NA
ATOM     37 C37  LIG A   1      22.558  18.515   7.618  1.00 20.00    -0.005 C 
ATOM     38 C38  LIG A   1      23.063  17.306   6.824  1.00 20.00    -0.039 C 
ATOM     39 C39  LIG A   1      22.133  16.730   5.747  1.00 20.00    -0.040 C 
ATOM     40 C40  LIG A   1      21.628  17.735   4.710  1.00 20.00    -0.008 C 
ATOM     41 N41  LIG A   1      20.465  18.481   5.189  1.00 20.00    -0.330 NA
ATOM     42 C42  LIG A   1      19.273  23.464  11.645  1.00 20.00    -0.038 A 
ATOM     43 C43  LIG A   1      19.034  24.472  12.589  1.00 20.00    -0.052 A 
ATOM     44 C44  LIG A   1      20.471  26.251  15.332  1.00 20.00    +0.103 C 
ATOM     45 O45  LIG A   1      20.314  27.158  16.354  1.00 20.00    -0.463 OA
ATOM     46 C46  LIG A   1      19.410  28.171  16.170  1.00 20.00    +0.139 A 
ATOM     47 C47  LIG A   1      19.258  29.091  17.211  1.00 20.00    +0.005 A 
ATOM     48 H48  LIG A   1      15.801  27.710  15.929  1.00 20.00    +0.024 H 
ATOM     49 H49  LIG A   1      16.047  27.860  14.186  1.00 20.00    +0.024 H 
ATOM     50 H50  LIG A   1      16.435  26.337  15.017  1.00 20.00    +0.024 H 
ATOM     51 H51  LIG A   1      17.833  29.030  15.477  1.00 20.00    +0.038 H 
ATOM     52 H52  LIG A   1      18.260  27.538  16.309  1.00 20.00    +0.038 H 
ATOM     53 H53  LIG A   1      19.792  25.643  12.186  1.00 20.00    +0.055 H 
ATOM     54 H54  LIG A   1      21.777  26.128  13.409  1.00 20.00    +0.119 HD
ATOM     55 H55  LIG A   1      21.651  24.773  14.307  1.00 20.00    +0.119 HD
ATOM     56 H56  LIG A   1      19.957  23.061  13.815  1.00 20.00    +0.029 H 
ATOM     57 H57  LIG A   1      18.427  23.654  13.209  1.00 20.00    +0.029 H 
ATOM     58 H58  LIG A   1      19.333  21.996  11.706  1.00 20.00    +0.029 H 
ATOM     59 H59  LIG A   1      19.170  23.543  10.900  1.00 20.00    +0.029 H 
ATOM     60 H60  LIG A   1      21.826  22.535  12.051  1.00 20.00    +0.049 H 
ATOM     61 H61  LIG A   1      21.611  23.930  10.988  1.00 20.00    +0.049 H 
ATOM     62 H62  LIG A   1      21.158  21.085  10.303  1.00 20.00    +0.163 HD
ATOM     63 H63  LIG A   1      20.358  23.585   7.502  1.00 20.00    +0.191 HD
ATOM     64 H64  LIG A   1      21.110  21.665   7.001  1.00 20.00    +0.159 HD
ATOM     65 H65  LIG A   1      21.937  20.823   8.171  1.00 20.00    +0.159 HD
ATOM     66 H66  LIG A   1      15.001  32.292  20.871  1.00 20.00    +0.189 HD
ATOM     67 H67  LIG A   1      16.438  29.277  21.429  1.00 20.00    +0.157 HD
ATOM     68 H68  LIG A   1      16.630  28.904  19.782  1.00 20.00    +0.157 HD
ATOM     69 H69  LIG A   1      15.648  30.391  18.149  1.00 20.00    +0.037 H 
ATOM     70 H70  LIG A   1      15.022  31.941  18.716  1.00 20.00    +0.037 H 
ATOM     71 H71  LIG A   1      17.429  32.707  19.113  1.00 20.00    +0.049 H 
ATOM     72 H72  LIG A   1      16.964  32.548  17.437  1.00 20.00    +0.049 H 
ATOM     73 H73  LIG A   1      18.574  30.661  19.063  1.00 20.00    +0.160 HD
ATOM     74 H74  LIG A   1      16.947  31.126  15.773  1.00 20.00    +0.064 H 
ATOM     75 H75  LIG A   1      17.200  29.504  13.961  1.00 20.00    +0.063 H 
ATOM     76 H76  LIG A   1      22.249  25.397  13.179  1.00 20.00    +0.063 H 
ATOM     77 H77  LIG A   1      22.654  23.625  11.551  1.00 20.00    +0.064 H 
ATOM     78 H78  LIG A   1      21.750  22.319   9.835  1.00 20.00    +0.160 HD
ATOM     79 H79  LIG A   1      19.033  21.142  10.021  1.00 20.00    +0.049 H 
ATOM     80 H80  LIG A   1      19.398  22.441   8.862  1.00 20.00    +0.049 H 
ATOM     81 H81  LIG A   1      21.261  21.038   7.926  1.00 20.00    +0.030 H 
ATOM     82 H82  LIG A   1      19.645  20.365   7.710  1.00 20.00    +0.030 H 
ATOM     83 H83  LIG A   1      19.983  18.907   9.724  1.00 20.00    +0.043 H 
ATOM     84 H84  LIG A   1      21.628  19.489   9.895  1.00 20.00    +0.043 H 
ATOM     85 H85  LIG A   1      20.581  18.188   7.463  1.00 20.00    +0.122 HD
ATOM     86 H86  LIG A   1      22.507  19.389   6.958  1.00 20.00    +0.043 H 
ATOM     87 H87  LIG A   1      23.300  18.740   8.394  1.00 20.00    +0.043 H 
ATOM     88 H88  LIG A   1      24.012  17.587   6.350  1.00 20.00    +0.028 H 
ATOM     89 H89  LIG A   1      23.304  16.498   7.526  1.00 20.00    +0.028 H 
ATOM     90 H90  LIG A   1      21.289  16.210   6.216  1.00 20.00    +0.028 H 
ATOM     91 H91  LIG A   1      22.697  15.952   5.215  1.00 20.00    +0.028 H 
ATOM     92 H92  LIG A   1      22.426  18.432   4.433  1.00 20.00    +0.043 H 
ATOM     93 H93  LIG A   1      21.335  17.198   3.801  1.00 20.00    +0.043 H 
ATOM     94 H94  LIG A   1      19.680  17.835   5.288  1.00 20.00    +0.118 HD
ATOM     95 H95  LIG A   1      20.181  19.144   4.468  1.00 20.00    +0.118 HD
ATOM     96 H96  LIG A   1      18.415  22.930  11.252  1.00 20.00    +0.064 H 
ATOM     97 H97  LIG A   1      18.006  24.687  12.872  1.00 20.00    +0.063 H 
ATOM     98 H98  LIG A   1      21.202  25.505  15.626  1.00 20.00    +0.105 H 
ATOM     99 H99  LIG A   1      19.869  28.978  18.105  1.00 20.00    +0.068 H 
ENDROOT
TORSDOF 0
                                                                                                      
ENDMDL
MODEL 6
REMARK VINA RESULT:   -10.777      3.594     12.233
REMARK INTER + INTRA:         -10.777
REMARK INTER:                 -10.777
REMARK INTRA:                   0.000
REMARK UNBOUND:                 0.000
ROOT
ATOM      1 C1   LIG A   1      21.391  22.644  10.208  1.00 20.00    -0.056 C 
ATOM      2 C2   LIG A   1      21.802  21.615  11.246  1.00 20.00    -0.002 C 
ATOM      3 S3   LIG A   1      22.076  19.985  10.493  1.00 20.00    -0.087 SA
ATOM      4 C4   LIG A   1      20.405  19.460  10.261  1.00 20.00    +0.205 C 
ATOM      5 O5   LIG A   1      19.467  20.012  10.826  1.00 20.00    -0.285 OA
ATOM      6 C6   LIG A   1      20.254  18.194   9.393  1.00 20.00    +0.074 C 
ATOM      7 N7   LIG A   1      20.235  17.002  10.269  1.00 20.00    -0.321 NA
ATOM      8 C8   LIG A   1      18.959  18.277   8.569  1.00 20.00    -0.028 C 
ATOM      9 C9   LIG A   1      18.926  17.372   7.331  1.00 20.00    -0.034 C 
ATOM     10 C10  LIG A   1      19.096  15.880   7.620  1.00 20.00    +0.018 C 
ATOM     11 N11  LIG A   1      18.769  15.087   6.440  1.00 20.00    -0.357 NA
ATOM     12 C12  LIG A   1      19.603  15.002   5.380  1.00 20.00    +0.185 C 
ATOM     13 N13  LIG A   1      20.790  15.482   5.324  1.00 20.00    -0.270 NA
ATOM     14 N14  LIG A   1      19.033  14.322   4.365  1.00 20.00    -0.370 NA
ATOM     15 N15  LIG A   1      22.478  26.850  16.162  1.00 20.00    -0.289 NA
ATOM     16 C16  LIG A   1      22.301  25.853  15.359  1.00 20.00    +0.092 C 
ATOM     17 N17  LIG A   1      21.162  25.119  15.478  1.00 20.00    -0.388 NA
ATOM     18 C18  LIG A   1      23.320  25.487  14.302  1.00 20.00    +0.022 C 
ATOM     19 C19  LIG A   1      24.206  24.338  14.778  1.00 20.00    +0.022 C 
ATOM     20 N20  LIG A   1      23.495  23.059  14.824  1.00 20.00    -0.384 NA
ATOM     21 C21  LIG A   1      23.102  22.382  13.673  1.00 20.00    +0.038 A 
ATOM     22 C22  LIG A   1      23.703  22.567  12.420  1.00 20.00    -0.038 A 
ATOM     23 C23  LIG A   1      23.306  21.818  11.306  1.00 20.00    -0.045 A 
ATOM     24 C24  LIG A   1      22.317  20.845  11.442  1.00 20.00    +0.065 A 
ATOM     25 C25  LIG A   1      21.878  20.047  10.283  1.00 20.00    +0.200 C 
ATOM     26 O26  LIG A   1      22.355  20.249   9.172  1.00 20.00    -0.288 OA
ATOM     27 C27  LIG A   1      20.841  19.008  10.545  1.00 20.00    +0.065 C 
ATOM     28 C28  LIG A   1      20.301  18.147   9.478  1.00 20.00    -0.011 A 
ATOM     29 C29  LIG A   1      20.223  16.758   9.634  1.00 20.00    -0.052 A 
ATOM     30 C30  LIG A   1      19.708  15.952   8.610  1.00 20.00    -0.038 A 
ATOM     31 C31  LIG A   1      19.283  16.499   7.392  1.00 20.00    +0.034 A 
ATOM     32 N32  LIG A   1      18.725  15.640   6.436  1.00 20.00    -0.385 NA
ATOM     33 C33  LIG A   1      18.581  16.103   5.058  1.00 20.00    +0.016 C 
ATOM     34 C34  LIG A   1      18.080  14.970   4.159  1.00 20.00    -0.023 C 
ATOM     35 C35  LIG A   1      16.629  14.587   4.469  1.00 20.00    -0.003 C 
ATOM     36 N36  LIG A   1      16.071  13.609   3.527  1.00 20.00    -0.317 NA
ATOM     37 C37  LIG A   1      16.622  12.268   3.713  1.00 20.00    -0.005 C 
ATOM     38 C38  LIG A   1      15.871  11.236   2.867  1.00 20.00    -0.039 C 
ATOM     39 C39  LIG A   1      15.757  11.505   1.360  1.00 20.00    -0.040 C 
ATOM     40 C40  LIG A   1      17.080  11.762   0.637  1.00 20.00    -0.008 C 
ATOM     41 N41  LIG A   1      17.514  13.152   0.763  1.00 20.00    -0.330 NA
ATOM     42 C42  LIG A   1      19.327  17.889   7.259  1.00 20.00    -0.038 A 
ATOM     43 C43  LIG A   1      19.843  18.701   8.279  1.00 20.00    -0.052 A 
ATOM     44 C44  LIG A   1      20.382  18.911  11.803  1.00 20.00    +0.103 C 
ATOM     45 O45  LIG A   1      20.778  19.658  12.887  1.00 20.00    -0.463 OA
ATOM     46 C46  LIG A   1      21.741  20.612  12.683  1.00 20.00    +0.139 A 
ATOM     47 C47  LIG A   1      22.140  21.367  13.790  1.00 20.00    +0.005 A 
ATOM     48 H48  LIG A   1      21.279  23.626  10.682  1.00 20.00    +0.024 H 
ATOM     49 H49  LIG A   1      22.147  22.744   9.421  1.00 20.00    +0.024 H 
ATOM     50 H50  LIG A   1      20.433  22.395   9.741  1.00 20.00    +0.024 H 
ATOM     51 H51  LIG A   1      22.747  21.928  11.702  1.00 20.00    +0.038 H 
ATOM     52 H52  LIG A   1      21.061  21.552  12.050  1.00 20.00    +0.038 H 
ATOM     53 H53  LIG A   1      21.105  18.124   8.707  1.00 20.00    +0.055 H 
ATOM     54 H54  LIG A   1      21.118  16.953  10.780  1.00 20.00    +0.119 HD
ATOM     55 H55  LIG A   1      19.509  17.126  10.979  1.00 20.00    +0.119 HD
ATOM     56 H56  LIG A   1      18.089  18.060   9.203  1.00 20.00    +0.029 H 
ATOM     57 H57  LIG A   1      18.820  19.309   8.221  1.00 20.00    +0.029 H 
ATOM     58 H58  LIG A   1      17.970  17.537   6.819  1.00 20.00    +0.029 H 
ATOM     59 H59  LIG A   1      19.704  17.701   6.631  1.00 20.00    +0.029 H 
ATOM     60 H60  LIG A   1      18.415  15.576   8.424  1.00 20.00    +0.049 H 
ATOM     61 H61  LIG A   1      20.115  15.649   7.949  1.00 20.00    +0.049 H 
ATOM     62 H62  LIG A   1      17.793  15.152   6.180  1.00 20.00    +0.163 HD
ATOM     63 H63  LIG A   1      21.195  15.296   4.407  1.00 20.00    +0.191 HD
ATOM     64 H64  LIG A   1      19.685  14.003   3.661  1.00 20.00    +0.159 HD
ATOM     65 H65  LIG A   1      18.467  13.549   4.698  1.00 20.00    +0.159 HD
ATOM     66 H66  LIG A   1      23.369  27.322  15.977  1.00 20.00    +0.189 HD
ATOM     67 H67  LIG A   1      20.453  25.603  16.023  1.00 20.00    +0.157 HD
ATOM     68 H68  LIG A   1      20.802  24.691  14.632  1.00 20.00    +0.157 HD
ATOM     69 H69  LIG A   1      22.793  25.240  13.374  1.00 20.00    +0.037 H 
ATOM     70 H70  LIG A   1      23.943  26.364  14.101  1.00 20.00    +0.037 H 
ATOM     71 H71  LIG A   1      24.570  24.550  15.790  1.00 20.00    +0.049 H 
ATOM     72 H72  LIG A   1      25.101  24.259  14.151  1.00 20.00    +0.049 H 
ATOM     73 H73  LIG A   1      22.774  23.060  15.547  1.00 20.00    +0.160 HD
ATOM     74 H74  LIG A   1      24.496  23.296  12.281  1.00 20.00    +0.064 H 
ATOM     75 H75  LIG A   1      23.780  21.990  10.342  1.00 20.00    +0.063 H 
ATOM     76 H76  LIG A   1      20.566  16.280  10.549  1.00 20.00    +0.063 H 
ATOM     77 H77  LIG A   1      19.645  14.879   8.776  1.00 20.00    +0.064 H 
ATOM     78 H78  LIG A   1      19.133  14.710   6.501  1.00 20.00    +0.160 HD
ATOM     79 H79  LIG A   1      17.878  16.943   5.003  1.00 20.00    +0.049 H 
ATOM     80 H80  LIG A   1      19.553  16.441   4.679  1.00 20.00    +0.049 H 
ATOM     81 H81  LIG A   1      18.739  14.100   4.265  1.00 20.00    +0.030 H 
ATOM     82 H82  LIG A   1      18.152  15.304   3.117  1.00 20.00    +0.030 H 
ATOM     83 H83  LIG A   1      16.006  15.487   4.404  1.00 20.00    +0.043 H 
ATOM     84 H84  LIG A   1      16.529  14.220   5.496  1.00 20.00    +0.043 H 
ATOM     85 H85  LIG A   1      16.311  13.893   2.572  1.00 20.00    +0.122 HD
ATOM     86 H86  LIG A   1      17.688  12.242   3.459  1.00 20.00    +0.043 H 
ATOM     87 H87  LIG A   1      16.534  11.967   4.764  1.00 20.00    +0.043 H 
ATOM     88 H88  LIG A   1      16.360  10.263   3.009  1.00 20.00    +0.028 H 
ATOM     89 H89  LIG A   1      14.854  11.123   3.266  1.00 20.00    +0.028 H 
ATOM     90 H90  LIG A   1      15.057  12.329   1.176  1.00 20.00    +0.028 H 
ATOM     91 H91  LIG A   1      15.291  10.619   0.907  1.00 20.00    +0.028 H 
ATOM     92 H92  LIG A   1      17.860  11.095   1.019  1.00 20.00    +0.043 H 
ATOM     93 H93  LIG A   1      16.956  11.541  -0.430  1.00 20.00    +0.043 H 
ATOM     94 H94  LIG A   1      16.855  13.748   0.260  1.00 20.00    +0.118 HD
ATOM     95 H95  LIG A   1      18.405  13.263   0.278  1.00 20.00    +0.118 HD
ATOM     96 H96  LIG A   1      18.970  18.379   6.359  1.00 20.00    +0.064 H 
ATOM     97 H97  LIG A   1      19.882  19.777   8.118  1.00 20.00    +0.063 H 
ATOM     98 H98  LIG A   1      19.611  18.213  12.112  1.00 20.00    +0.105 H 
ATOM     99 H99  LIG A   1      21.691  21.155  14.759  1.00 20.00    +0.068 H 
ENDROOT
TORSDOF 0
                                                                                                      
ENDMDL
MODEL 7
REMARK VINA RESULT:   -10.742      6.022     13.543
REMARK INTER + INTRA:         -10.742
REMARK INTER:                 -10.742
REMARK INTRA:                   0.000
REMARK UNBOUND:                 0.000
ROOT
ATOM      1 C1   LIG A   1      21.744  18.150   8.238  1.00 20.00    -0.056 C 
ATOM      2 C2   LIG A   1      21.135  17.441   9.435  1.00 20.00    -0.002 C 
ATOM      3 S3   LIG A   1      20.333  15.886   8.948  1.00 20.00    -0.087 SA
ATOM      4 C4   LIG A   1      18.842  16.510   8.236  1.00 20.00    +0.205 C 
ATOM      5 O5   LIG A   1      18.467  17.662   8.421  1.00 20.00    -0.285 OA
ATOM      6 C6   LIG A   1      18.015  15.454   7.473  1.00 20.00    +0.074 C 
ATOM      7 N7   LIG A   1      17.021  14.857   8.392  1.00 20.00    -0.321 NA
ATOM      8 C8   LIG A   1      17.312  16.108   6.273  1.00 20.00    -0.028 C 
ATOM      9 C9   LIG A   1      16.883  15.132   5.170  1.00 20.00    -0.034 C 
ATOM     10 C10  LIG A   1      15.919  14.035   5.621  1.00 20.00    +0.018 C 
ATOM     11 N11  LIG A   1      15.352  13.343   4.468  1.00 20.00    -0.357 NA
ATOM     12 C12  LIG A   1      16.066  12.453   3.744  1.00 20.00    +0.185 C 
ATOM     13 N13  LIG A   1      17.238  12.025   4.032  1.00 20.00    -0.270 NA
ATOM     14 N14  LIG A   1      15.377  12.044   2.659  1.00 20.00    -0.370 NA
ATOM     15 N15  LIG A   1      24.354  22.146  13.855  1.00 20.00    -0.289 NA
ATOM     16 C16  LIG A   1      23.684  21.317  13.123  1.00 20.00    +0.092 C 
ATOM     17 N17  LIG A   1      22.357  21.551  12.930  1.00 20.00    -0.388 NA
ATOM     18 C18  LIG A   1      24.331  20.109  12.485  1.00 20.00    +0.022 C 
ATOM     19 C19  LIG A   1      24.073  18.853  13.313  1.00 20.00    +0.022 C 
ATOM     20 N20  LIG A   1      22.683  18.402  13.235  1.00 20.00    -0.384 NA
ATOM     21 C21  LIG A   1      22.144  17.844  12.078  1.00 20.00    +0.038 A 
ATOM     22 C22  LIG A   1      22.916  17.241  11.075  1.00 20.00    -0.038 A 
ATOM     23 C23  LIG A   1      22.318  16.645   9.959  1.00 20.00    -0.045 A 
ATOM     24 C24  LIG A   1      20.928  16.615   9.849  1.00 20.00    +0.065 A 
ATOM     25 C25  LIG A   1      20.275  15.997   8.681  1.00 20.00    +0.200 C 
ATOM     26 O26  LIG A   1      20.947  15.526   7.771  1.00 20.00    -0.288 OA
ATOM     27 C27  LIG A   1      18.784  15.987   8.681  1.00 20.00    +0.065 C 
ATOM     28 C28  LIG A   1      18.000  15.413   7.572  1.00 20.00    -0.011 A 
ATOM     29 C29  LIG A   1      16.957  14.511   7.810  1.00 20.00    -0.052 A 
ATOM     30 C30  LIG A   1      16.222  13.974   6.745  1.00 20.00    -0.038 A 
ATOM     31 C31  LIG A   1      16.519  14.295   5.414  1.00 20.00    +0.034 A 
ATOM     32 N32  LIG A   1      15.704  13.767   4.404  1.00 20.00    -0.385 NA
ATOM     33 C33  LIG A   1      16.168  13.804   3.020  1.00 20.00    +0.016 C 
ATOM     34 C34  LIG A   1      15.194  13.059   2.104  1.00 20.00    -0.023 C 
ATOM     35 C35  LIG A   1      13.859  13.795   1.962  1.00 20.00    -0.003 C 
ATOM     36 N36  LIG A   1      12.960  13.186   0.975  1.00 20.00    -0.317 NA
ATOM     37 C37  LIG A   1      12.385  11.924   1.439  1.00 20.00    -0.005 C 
ATOM     38 C38  LIG A   1      11.295  11.425   0.485  1.00 20.00    -0.039 C 
ATOM     39 C39  LIG A   1      11.670  11.268  -0.996  1.00 20.00    -0.040 C 
ATOM     40 C40  LIG A   1      12.902  10.406  -1.273  1.00 20.00    -0.008 C 
ATOM     41 N41  LIG A   1      14.145  11.162  -1.129  1.00 20.00    -0.330 NA
ATOM     42 C42  LIG A   1      17.535  15.228   5.188  1.00 20.00    -0.038 A 
ATOM     43 C43  LIG A   1      18.277  15.767   6.248  1.00 20.00    -0.052 A 
ATOM     44 C44  LIG A   1      18.172  16.562   9.728  1.00 20.00    +0.103 C 
ATOM     45 O45  LIG A   1      18.773  17.151  10.815  1.00 20.00    -0.463 OA
ATOM     46 C46  LIG A   1      20.143  17.164  10.854  1.00 20.00    +0.139 A 
ATOM     47 C47  LIG A   1      20.747  17.761  11.964  1.00 20.00    +0.005 A 
ATOM     48 H48  LIG A   1      22.260  19.059   8.568  1.00 20.00    +0.024 H 
ATOM     49 H49  LIG A   1      22.482  17.519   7.731  1.00 20.00    +0.024 H 
ATOM     50 H50  LIG A   1      20.984  18.451   7.510  1.00 20.00    +0.024 H 
ATOM     51 H51  LIG A   1      21.932  17.191  10.143  1.00 20.00    +0.038 H 
ATOM     52 H52  LIG A   1      20.430  18.094   9.961  1.00 20.00    +0.038 H 
ATOM     53 H53  LIG A   1      18.685  14.668   7.106  1.00 20.00    +0.055 H 
ATOM     54 H54  LIG A   1      17.515  14.402   9.163  1.00 20.00    +0.119 HD
ATOM     55 H55  LIG A   1      16.472  15.608   8.818  1.00 20.00    +0.119 HD
ATOM     56 H56  LIG A   1      16.440  16.685   6.608  1.00 20.00    +0.029 H 
ATOM     57 H57  LIG A   1      17.991  16.840   5.814  1.00 20.00    +0.029 H 
ATOM     58 H58  LIG A   1      16.420  15.717   4.364  1.00 20.00    +0.029 H 
ATOM     59 H59  LIG A   1      17.780  14.676   4.732  1.00 20.00    +0.029 H 
ATOM     60 H60  LIG A   1      15.089  14.476   6.184  1.00 20.00    +0.049 H 
ATOM     61 H61  LIG A   1      16.414  13.312   6.277  1.00 20.00    +0.049 H 
ATOM     62 H62  LIG A   1      14.760  13.939   3.903  1.00 20.00    +0.163 HD
ATOM     63 H63  LIG A   1      17.556  11.376   3.313  1.00 20.00    +0.191 HD
ATOM     64 H64  LIG A   1      15.738  11.202   2.232  1.00 20.00    +0.159 HD
ATOM     65 H65  LIG A   1      14.387  11.943   2.855  1.00 20.00    +0.159 HD
ATOM     66 H66  LIG A   1      25.337  21.864  13.928  1.00 20.00    +0.189 HD
ATOM     67 H67  LIG A   1      22.099  22.503  13.176  1.00 20.00    +0.157 HD
ATOM     68 H68  LIG A   1      21.960  21.235  12.052  1.00 20.00    +0.157 HD
ATOM     69 H69  LIG A   1      23.957  20.007  11.460  1.00 20.00    +0.037 H 
ATOM     70 H70  LIG A   1      25.411  20.284  12.422  1.00 20.00    +0.037 H 
ATOM     71 H71  LIG A   1      24.294  19.057  14.367  1.00 20.00    +0.049 H 
ATOM     72 H72  LIG A   1      24.756  18.050  13.017  1.00 20.00    +0.049 H 
ATOM     73 H73  LIG A   1      22.050  19.065  13.685  1.00 20.00    +0.160 HD
ATOM     74 H74  LIG A   1      23.999  17.220  11.138  1.00 20.00    +0.064 H 
ATOM     75 H75  LIG A   1      22.940  16.195   9.187  1.00 20.00    +0.063 H 
ATOM     76 H76  LIG A   1      16.704  14.206   8.822  1.00 20.00    +0.063 H 
ATOM     77 H77  LIG A   1      15.406  13.291   6.970  1.00 20.00    +0.064 H 
ATOM     78 H78  LIG A   1      15.335  12.858   4.674  1.00 20.00    +0.160 HD
ATOM     79 H79  LIG A   1      16.268  14.839   2.672  1.00 20.00    +0.049 H 
ATOM     80 H80  LIG A   1      17.151  13.320   2.947  1.00 20.00    +0.049 H 
ATOM     81 H81  LIG A   1      15.035  12.044   2.489  1.00 20.00    +0.030 H 
ATOM     82 H82  LIG A   1      15.662  12.959   1.117  1.00 20.00    +0.030 H 
ATOM     83 H83  LIG A   1      14.057  14.820   1.625  1.00 20.00    +0.043 H 
ATOM     84 H84  LIG A   1      13.352  13.884   2.929  1.00 20.00    +0.043 H 
ATOM     85 H85  LIG A   1      13.494  12.968   0.128  1.00 20.00    +0.122 HD
ATOM     86 H86  LIG A   1      13.157  11.154   1.544  1.00 20.00    +0.043 H 
ATOM     87 H87  LIG A   1      11.928  12.059   2.427  1.00 20.00    +0.043 H 
ATOM     88 H88  LIG A   1      10.939  10.456   0.857  1.00 20.00    +0.028 H 
ATOM     89 H89  LIG A   1      10.435  12.104   0.544  1.00 20.00    +0.028 H 
ATOM     90 H90  LIG A   1      11.782  12.255  -1.462  1.00 20.00    +0.028 H 
ATOM     91 H91  LIG A   1      10.812  10.802  -1.499  1.00 20.00    +0.028 H 
ATOM     92 H92  LIG A   1      12.919   9.538  -0.606  1.00 20.00    +0.043 H 
ATOM     93 H93  LIG A   1      12.852  10.027  -2.300  1.00 20.00    +0.043 H 
ATOM     94 H94  LIG A   1      14.186  11.869  -1.866  1.00 20.00    +0.118 HD
ATOM     95 H95  LIG A   1      14.932  10.537  -1.310  1.00 20.00    +0.118 HD
ATOM     96 H96  LIG A   1      17.784  15.554   4.183  1.00 20.00    +0.064 H 
ATOM     97 H97  LIG A   1      19.076  16.470   6.020  1.00 20.00    +0.063 H 
ATOM     98 H98  LIG A   1      17.095  16.640   9.829  1.00 20.00    +0.105 H 
ATOM     99 H99  LIG A   1      20.114  18.168  12.751  1.00 20.00    +0.068 H 
ENDROOT
TORSDOF 0
                                                                                                      
ENDMDL
MODEL 8
REMARK VINA RESULT:   -10.714      4.107      6.385
REMARK INTER + INTRA:         -10.714
REMARK INTER:                 -10.714
REMARK INTRA:                   0.000
REMARK UNBOUND:                 0.000
ROOT
ATOM      1 C1   LIG A   1      19.231  15.942   4.013  1.00 20.00    -0.056 C 
ATOM      2 C2   LIG A   1      18.486  15.038   4.980  1.00 20.00    -0.002 C 
ATOM      3 S3   LIG A   1      17.966  15.943   6.467  1.00 20.00    -0.087 SA
ATOM      4 C4   LIG A   1      19.501  16.035   7.335  1.00 20.00    +0.205 C 
ATOM      5 O5   LIG A   1      20.460  15.331   7.035  1.00 20.00    -0.285 OA
ATOM      6 C6   LIG A   1      19.484  16.979   8.555  1.00 20.00    +0.074 C 
ATOM      7 N7   LIG A   1      19.142  16.202   9.766  1.00 20.00    -0.321 NA
ATOM      8 C8   LIG A   1      20.857  17.650   8.716  1.00 20.00    -0.028 C 
ATOM      9 C9   LIG A   1      20.847  18.945   9.538  1.00 20.00    -0.034 C 
ATOM     10 C10  LIG A   1      20.329  18.794  10.969  1.00 20.00    +0.018 C 
ATOM     11 N11  LIG A   1      20.621  19.991  11.750  1.00 20.00    -0.357 NA
ATOM     12 C12  LIG A   1      19.923  21.138  11.591  1.00 20.00    +0.185 C 
ATOM     13 N13  LIG A   1      18.882  21.283  10.859  1.00 20.00    -0.270 NA
ATOM     14 N14  LIG A   1      20.455  22.137  12.325  1.00 20.00    -0.370 NA
ATOM     15 N15  LIG A   1      18.348   9.825  -0.003  1.00 20.00    -0.289 NA
ATOM     16 C16  LIG A   1      18.405  10.682   0.964  1.00 20.00    +0.092 C 
ATOM     17 N17  LIG A   1      19.339  10.499   1.936  1.00 20.00    -0.388 NA
ATOM     18 C18  LIG A   1      17.468  11.867   1.039  1.00 20.00    +0.022 C 
ATOM     19 C19  LIG A   1      16.306  11.581   1.987  1.00 20.00    +0.022 C 
ATOM     20 N20  LIG A   1      16.717  11.559   3.392  1.00 20.00    -0.384 NA
ATOM     21 C21  LIG A   1      17.095  12.712   4.076  1.00 20.00    +0.038 A 
ATOM     22 C22  LIG A   1      16.703  14.003   3.696  1.00 20.00    -0.038 A 
ATOM     23 C23  LIG A   1      17.064  15.124   4.454  1.00 20.00    -0.045 A 
ATOM     24 C24  LIG A   1      17.799  14.961   5.627  1.00 20.00    +0.065 A 
ATOM     25 C25  LIG A   1      18.196  16.125   6.439  1.00 20.00    +0.200 C 
ATOM     26 O26  LIG A   1      17.911  17.261   6.077  1.00 20.00    -0.288 OA
ATOM     27 C27  LIG A   1      18.948  15.836   7.693  1.00 20.00    +0.065 C 
ATOM     28 C28  LIG A   1      19.418  16.904   8.595  1.00 20.00    -0.011 A 
ATOM     29 C29  LIG A   1      19.178  16.850   9.973  1.00 20.00    -0.052 A 
ATOM     30 C30  LIG A   1      19.630  17.873  10.816  1.00 20.00    -0.038 A 
ATOM     31 C31  LIG A   1      20.308  18.992  10.313  1.00 20.00    +0.034 A 
ATOM     32 N32  LIG A   1      20.782  19.947  11.221  1.00 20.00    -0.385 NA
ATOM     33 C33  LIG A   1      21.188  21.261  10.728  1.00 20.00    +0.016 C 
ATOM     34 C34  LIG A   1      21.542  22.188  11.894  1.00 20.00    -0.023 C 
ATOM     35 C35  LIG A   1      22.828  21.755  12.604  1.00 20.00    -0.003 C 
ATOM     36 N36  LIG A   1      23.276  22.706  13.628  1.00 20.00    -0.317 NA
ATOM     37 C37  LIG A   1      22.433  22.687  14.823  1.00 20.00    -0.005 C 
ATOM     38 C38  LIG A   1      23.045  23.526  15.949  1.00 20.00    -0.039 C 
ATOM     39 C39  LIG A   1      23.396  24.986  15.631  1.00 20.00    -0.040 C 
ATOM     40 C40  LIG A   1      22.256  25.824  15.050  1.00 20.00    -0.008 C 
ATOM     41 N41  LIG A   1      22.116  25.636  13.607  1.00 20.00    -0.330 NA
ATOM     42 C42  LIG A   1      20.577  19.018   8.941  1.00 20.00    -0.038 A 
ATOM     43 C43  LIG A   1      20.126  17.999   8.091  1.00 20.00    -0.052 A 
ATOM     44 C44  LIG A   1      19.219  14.548   7.957  1.00 20.00    +0.103 C 
ATOM     45 O45  LIG A   1      18.862  13.457   7.200  1.00 20.00    -0.463 OA
ATOM     46 C46  LIG A   1      18.157  13.687   6.048  1.00 20.00    +0.139 A 
ATOM     47 C47  LIG A   1      17.796  12.573   5.284  1.00 20.00    +0.005 A 
ATOM     48 H48  LIG A   1      19.491  15.383   3.107  1.00 20.00    +0.024 H 
ATOM     49 H49  LIG A   1      18.615  16.795   3.707  1.00 20.00    +0.024 H 
ATOM     50 H50  LIG A   1      20.163  16.322   4.443  1.00 20.00    +0.024 H 
ATOM     51 H51  LIG A   1      17.582  14.663   4.491  1.00 20.00    +0.038 H 
ATOM     52 H52  LIG A   1      19.093  14.167   5.248  1.00 20.00    +0.038 H 
ATOM     53 H53  LIG A   1      18.727  17.756   8.398  1.00 20.00    +0.055 H 
ATOM     54 H54  LIG A   1      18.213  15.795   9.647  1.00 20.00    +0.119 HD
ATOM     55 H55  LIG A   1      19.785  15.412   9.844  1.00 20.00    +0.119 HD
ATOM     56 H56  LIG A   1      21.577  16.946   9.153  1.00 20.00    +0.029 H 
ATOM     57 H57  LIG A   1      21.254  17.899   7.722  1.00 20.00    +0.029 H 
ATOM     58 H58  LIG A   1      21.872  19.337   9.561  1.00 20.00    +0.029 H 
ATOM     59 H59  LIG A   1      20.248  19.696   9.008  1.00 20.00    +0.029 H 
ATOM     60 H60  LIG A   1      20.827  17.949  11.458  1.00 20.00    +0.049 H 
ATOM     61 H61  LIG A   1      19.252  18.596  10.986  1.00 20.00    +0.049 H 
ATOM     62 H62  LIG A   1      21.613  20.140  11.888  1.00 20.00    +0.163 HD
ATOM     63 H63  LIG A   1      18.561  22.250  10.902  1.00 20.00    +0.191 HD
ATOM     64 H64  LIG A   1      19.840  22.929  12.454  1.00 20.00    +0.159 HD
ATOM     65 H65  LIG A   1      20.798  21.807  13.220  1.00 20.00    +0.159 HD
ATOM     66 H66  LIG A   1      17.608  10.068  -0.669  1.00 20.00    +0.189 HD
ATOM     67 H67  LIG A   1      20.062   9.844   1.651  1.00 20.00    +0.157 HD
ATOM     68 H68  LIG A   1      19.699  11.333   2.387  1.00 20.00    +0.157 HD
ATOM     69 H69  LIG A   1      18.039  12.749   1.346  1.00 20.00    +0.037 H 
ATOM     70 H70  LIG A   1      17.075  12.064   0.036  1.00 20.00    +0.037 H 
ATOM     71 H71  LIG A   1      15.876  10.600   1.754  1.00 20.00    +0.049 H 
ATOM     72 H72  LIG A   1      15.498  12.305   1.833  1.00 20.00    +0.049 H 
ATOM     73 H73  LIG A   1      17.328  10.766   3.589  1.00 20.00    +0.160 HD
ATOM     74 H74  LIG A   1      16.108  14.169   2.804  1.00 20.00    +0.064 H 
ATOM     75 H75  LIG A   1      16.759  16.117   4.130  1.00 20.00    +0.063 H 
ATOM     76 H76  LIG A   1      18.632  16.018  10.411  1.00 20.00    +0.063 H 
ATOM     77 H77  LIG A   1      19.443  17.787  11.884  1.00 20.00    +0.064 H 
ATOM     78 H78  LIG A   1      20.181  20.000  12.040  1.00 20.00    +0.160 HD
ATOM     79 H79  LIG A   1      22.055  21.174  10.062  1.00 20.00    +0.049 H 
ATOM     80 H80  LIG A   1      20.364  21.714  10.164  1.00 20.00    +0.049 H 
ATOM     81 H81  LIG A   1      20.705  22.221  12.601  1.00 20.00    +0.030 H 
ATOM     82 H82  LIG A   1      21.670  23.202  11.497  1.00 20.00    +0.030 H 
ATOM     83 H83  LIG A   1      23.632  21.682  11.862  1.00 20.00    +0.043 H 
ATOM     84 H84  LIG A   1      22.722  20.755  13.038  1.00 20.00    +0.043 H 
ATOM     85 H85  LIG A   1      23.220  23.656  13.248  1.00 20.00    +0.122 HD
ATOM     86 H86  LIG A   1      21.426  23.055  14.600  1.00 20.00    +0.043 H 
ATOM     87 H87  LIG A   1      22.326  21.659  15.192  1.00 20.00    +0.043 H 
ATOM     88 H88  LIG A   1      22.346  23.514  16.796  1.00 20.00    +0.028 H 
ATOM     89 H89  LIG A   1      23.957  23.031  16.304  1.00 20.00    +0.028 H 
ATOM     90 H90  LIG A   1      24.273  25.028  14.973  1.00 20.00    +0.028 H 
ATOM     91 H91  LIG A   1      23.714  25.455  16.572  1.00 20.00    +0.028 H 
ATOM     92 H92  LIG A   1      21.312  25.582  15.548  1.00 20.00    +0.043 H 
ATOM     93 H93  LIG A   1      22.459  26.885  15.236  1.00 20.00    +0.043 H 
ATOM     94 H94  LIG A   1      22.944  26.017  13.145  1.00 20.00    +0.118 HD
ATOM     95 H95  LIG A   1      21.335  26.204  13.276  1.00 20.00    +0.118 HD
ATOM     96 H96  LIG A   1      21.137  19.834   8.495  1.00 20.00    +0.064 H 
ATOM     97 H97  LIG A   1      20.338  18.078   7.026  1.00 20.00    +0.063 H 
ATOM     98 H98  LIG A   1      19.780  14.214   8.824  1.00 20.00    +0.105 H 
ATOM     99 H99  LIG A   1      18.068  11.581   5.641  1.00 20.00    +0.068 H 
ENDROOT
TORSDOF 0
                                                                                                      
ENDMDL
MODEL 9
REMARK VINA RESULT:   -10.489      2.528     12.074
REMARK INTER + INTRA:         -10.489
REMARK INTER:                 -10.489
REMARK INTRA:                   0.000
REMARK UNBOUND:                 0.000
ROOT
ATOM      1 C1   LIG A   1      20.418  27.896  12.538  1.00 20.00    -0.056 C 
ATOM      2 C2   LIG A   1      20.299  26.980  13.743  1.00 20.00    -0.002 C 
ATOM      3 S3   LIG A   1      21.085  25.371  13.434  1.00 20.00    -0.087 SA
ATOM      4 C4   LIG A   1      19.858  24.612  12.415  1.00 20.00    +0.205 C 
ATOM      5 O5   LIG A   1      18.717  25.054  12.334  1.00 20.00    -0.285 OA
ATOM      6 C6   LIG A   1      20.316  23.300  11.744  1.00 20.00    +0.074 C 
ATOM      7 N7   LIG A   1      19.939  22.156  12.604  1.00 20.00    -0.321 NA
ATOM      8 C8   LIG A   1      19.666  23.168  10.358  1.00 20.00    -0.028 C 
ATOM      9 C9   LIG A   1      20.388  22.213   9.398  1.00 20.00    -0.034 C 
ATOM     10 C10  LIG A   1      20.513  20.773   9.897  1.00 20.00    +0.018 C 
ATOM     11 N11  LIG A   1      20.948  19.892   8.818  1.00 20.00    -0.357 NA
ATOM     12 C12  LIG A   1      22.225  19.876   8.376  1.00 20.00    +0.185 C 
ATOM     13 N13  LIG A   1      23.205  20.511   8.902  1.00 20.00    -0.270 NA
ATOM     14 N14  LIG A   1      22.356  19.080   7.295  1.00 20.00    -0.370 NA
ATOM     15 N15  LIG A   1      17.736  32.468  17.659  1.00 20.00    -0.289 NA
ATOM     16 C16  LIG A   1      18.113  31.422  17.000  1.00 20.00    +0.092 C 
ATOM     17 N17  LIG A   1      17.162  30.544  16.580  1.00 20.00    -0.388 NA
ATOM     18 C18  LIG A   1      19.568  31.154  16.688  1.00 20.00    +0.022 C 
ATOM     19 C19  LIG A   1      20.162  30.160  17.684  1.00 20.00    +0.022 C 
ATOM     20 N20  LIG A   1      19.659  28.799  17.490  1.00 20.00    -0.384 NA
ATOM     21 C21  LIG A   1      20.012  28.024  16.387  1.00 20.00    +0.038 A 
ATOM     22 C22  LIG A   1      21.173  28.235  15.630  1.00 20.00    -0.038 A 
ATOM     23 C23  LIG A   1      21.508  27.390  14.566  1.00 20.00    -0.045 A 
ATOM     24 C24  LIG A   1      20.697  26.297  14.265  1.00 20.00    +0.065 A 
ATOM     25 C25  LIG A   1      21.027  25.396  13.146  1.00 20.00    +0.200 C 
ATOM     26 O26  LIG A   1      22.005  25.613  12.441  1.00 20.00    -0.288 OA
ATOM     27 C27  LIG A   1      20.113  24.237  12.934  1.00 20.00    +0.065 C 
ATOM     28 C28  LIG A   1      20.314  23.263  11.846  1.00 20.00    -0.011 A 
ATOM     29 C29  LIG A   1      20.294  21.885  12.090  1.00 20.00    -0.052 A 
ATOM     30 C30  LIG A   1      20.487  20.972  11.046  1.00 20.00    -0.038 A 
ATOM     31 C31  LIG A   1      20.735  21.401   9.734  1.00 20.00    +0.034 A 
ATOM     32 N32  LIG A   1      20.861  20.433   8.730  1.00 20.00    -0.385 NA
ATOM     33 C33  LIG A   1      21.439  20.810   7.443  1.00 20.00    +0.016 C 
ATOM     34 C34  LIG A   1      21.608  19.581   6.547  1.00 20.00    -0.023 C 
ATOM     35 C35  LIG A   1      20.261  19.016   6.084  1.00 20.00    -0.003 C 
ATOM     36 N36  LIG A   1      20.391  17.930   5.105  1.00 20.00    -0.317 NA
ATOM     37 C37  LIG A   1      20.877  16.687   5.701  1.00 20.00    -0.005 C 
ATOM     38 C38  LIG A   1      20.798  15.525   4.706  1.00 20.00    -0.039 C 
ATOM     39 C39  LIG A   1      21.488  15.710   3.347  1.00 20.00    -0.040 C 
ATOM     40 C40  LIG A   1      22.962  16.114   3.409  1.00 20.00    -0.008 C 
ATOM     41 N41  LIG A   1      23.129  17.555   3.591  1.00 20.00    -0.330 NA
ATOM     42 C42  LIG A   1      20.715  22.777   9.492  1.00 20.00    -0.038 A 
ATOM     43 C43  LIG A   1      20.524  23.697  10.533  1.00 20.00    -0.052 A 
ATOM     44 C44  LIG A   1      19.061  24.133  13.761  1.00 20.00    +0.103 C 
ATOM     45 O45  LIG A   1      18.740  24.974  14.800  1.00 20.00    -0.463 OA
ATOM     46 C46  LIG A   1      19.568  26.042  15.031  1.00 20.00    +0.139 A 
ATOM     47 C47  LIG A   1      19.237  26.892  16.091  1.00 20.00    +0.005 A 
ATOM     48 H48  LIG A   1      19.978  28.873  12.769  1.00 20.00    +0.024 H 
ATOM     49 H49  LIG A   1      21.465  28.064  12.264  1.00 20.00    +0.024 H 
ATOM     50 H50  LIG A   1      19.890  27.497  11.666  1.00 20.00    +0.024 H 
ATOM     51 H51  LIG A   1      20.817  27.440  14.591  1.00 20.00    +0.038 H 
ATOM     52 H52  LIG A   1      19.252  26.851  14.036  1.00 20.00    +0.038 H 
ATOM     53 H53  LIG A   1      21.405  23.318  11.624  1.00 20.00    +0.055 H 
ATOM     54 H54  LIG A   1      20.409  22.252  13.506  1.00 20.00    +0.119 HD
ATOM     55 H55  LIG A   1      18.938  22.210  12.804  1.00 20.00    +0.119 HD
ATOM     56 H56  LIG A   1      18.616  22.861  10.455  1.00 20.00    +0.029 H 
ATOM     57 H57  LIG A   1      19.641  24.155   9.877  1.00 20.00    +0.029 H 
ATOM     58 H58  LIG A   1      19.847  22.223   8.443  1.00 20.00    +0.029 H 
ATOM     59 H59  LIG A   1      21.386  22.615   9.183  1.00 20.00    +0.029 H 
ATOM     60 H60  LIG A   1      19.539  20.414  10.247  1.00 20.00    +0.049 H 
ATOM     61 H61  LIG A   1      21.212  20.699  10.737  1.00 20.00    +0.049 H 
ATOM     62 H62  LIG A   1      20.264  19.810   8.076  1.00 20.00    +0.163 HD
ATOM     63 H63  LIG A   1      24.055  20.343   8.364  1.00 20.00    +0.191 HD
ATOM     64 H64  LIG A   1      23.311  18.824   7.083  1.00 20.00    +0.159 HD
ATOM     65 H65  LIG A   1      21.774  18.252   7.362  1.00 20.00    +0.159 HD
ATOM     66 H66  LIG A   1      18.539  33.050  17.921  1.00 20.00    +0.189 HD
ATOM     67 H67  LIG A   1      16.230  30.949  16.611  1.00 20.00    +0.157 HD
ATOM     68 H68  LIG A   1      17.355  30.034  15.725  1.00 20.00    +0.157 HD
ATOM     69 H69  LIG A   1      19.649  30.796  15.656  1.00 20.00    +0.037 H 
ATOM     70 H70  LIG A   1      20.118  32.099  16.751  1.00 20.00    +0.037 H 
ATOM     71 H71  LIG A   1      19.903  30.464  18.705  1.00 20.00    +0.049 H 
ATOM     72 H72  LIG A   1      21.256  30.177  17.638  1.00 20.00    +0.049 H 
ATOM     73 H73  LIG A   1      18.667  28.732  17.717  1.00 20.00    +0.160 HD
ATOM     74 H74  LIG A   1      21.844  29.059  15.851  1.00 20.00    +0.064 H 
ATOM     75 H75  LIG A   1      22.409  27.583  13.985  1.00 20.00    +0.063 H 
ATOM     76 H76  LIG A   1      20.134  21.500  13.094  1.00 20.00    +0.063 H 
ATOM     77 H77  LIG A   1      20.445  19.909  11.270  1.00 20.00    +0.064 H 
ATOM     78 H78  LIG A   1      21.254  19.571   9.103  1.00 20.00    +0.160 HD
ATOM     79 H79  LIG A   1      20.802  21.543   6.932  1.00 20.00    +0.049 H 
ATOM     80 H80  LIG A   1      22.427  21.262   7.600  1.00 20.00    +0.049 H 
ATOM     81 H81  LIG A   1      22.183  18.816   7.081  1.00 20.00    +0.030 H 
ATOM     82 H82  LIG A   1      22.198  19.876   5.671  1.00 20.00    +0.030 H 
ATOM     83 H83  LIG A   1      19.691  19.818   5.600  1.00 20.00    +0.043 H 
ATOM     84 H84  LIG A   1      19.659  18.684   6.937  1.00 20.00    +0.043 H 
ATOM     85 H85  LIG A   1      21.079  18.203   4.396  1.00 20.00    +0.122 HD
ATOM     86 H86  LIG A   1      21.909  16.796   6.052  1.00 20.00    +0.043 H 
ATOM     87 H87  LIG A   1      20.266  16.424   6.573  1.00 20.00    +0.043 H 
ATOM     88 H88  LIG A   1      21.221  14.636   5.192  1.00 20.00    +0.028 H 
ATOM     89 H89  LIG A   1      19.742  15.291   4.518  1.00 20.00    +0.028 H 
ATOM     90 H90  LIG A   1      20.924  16.421   2.732  1.00 20.00    +0.028 H 
ATOM     91 H91  LIG A   1      21.424  14.749   2.818  1.00 20.00    +0.028 H 
ATOM     92 H92  LIG A   1      23.471  15.578   4.216  1.00 20.00    +0.043 H 
ATOM     93 H93  LIG A   1      23.452  15.831   2.470  1.00 20.00    +0.043 H 
ATOM     94 H94  LIG A   1      22.792  18.032   2.753  1.00 20.00    +0.118 HD
ATOM     95 H95  LIG A   1      24.126  17.766   3.640  1.00 20.00    +0.118 HD
ATOM     96 H96  LIG A   1      20.855  23.173   8.492  1.00 20.00    +0.064 H 
ATOM     97 H97  LIG A   1      20.543  24.760  10.299  1.00 20.00    +0.063 H 
ATOM     98 H98  LIG A   1      18.313  23.350  13.692  1.00 20.00    +0.105 H 
ATOM     99 H99  LIG A   1      18.359  26.663  16.693  1.00 20.00    +0.068 H 
ENDROOT
TORSDOF 0
                                                                                                      
ENDMDL
