ROOT
ATOM      1 C1   LIG A   1       4.262  -0.801  -1.431  1.00 20.00    -0.060 C 
ATOM      2 C2   LIG A   1       3.240   0.243  -0.937  1.00 20.00    -0.016 C 
ATOM      3 C3   LIG A   1       2.326   0.669  -2.131  1.00 20.00    -0.023 C 
ATOM      4 C4   LIG A   1       0.989  -0.018  -2.167  1.00 20.00    -0.047 A 
ATOM      5 C5   LIG A   1       0.873  -1.366  -2.489  1.00 20.00    -0.059 A 
ATOM      6 C6   LIG A   1      -0.267  -2.062  -2.100  1.00 20.00    -0.057 A 
ATOM      7 C7   LIG A   1      -1.272  -1.428  -1.336  1.00 20.00    -0.023 A 
ATOM      8 C8   LIG A   1      -1.244  -0.023  -1.207  1.00 20.00    +0.027 A 
ATOM      9 C9   LIG A   1      -0.127   0.672  -1.683  1.00 20.00    -0.048 A 
ATOM     10 C10  LIG A   1      -2.269   0.754  -0.446  1.00 20.00    +0.194 C 
ATOM     11 O11  LIG A   1      -3.427   0.372  -0.343  1.00 20.00    -0.289 OA
ATOM     12 C12  LIG A   1      -1.916   2.040   0.187  1.00 20.00    +0.035 A 
ATOM     13 C13  LIG A   1      -2.430   3.206  -0.398  1.00 20.00    -0.050 A 
ATOM     14 C14  LIG A   1      -2.155   4.450   0.172  1.00 20.00    -0.061 A 
ATOM     15 C15  LIG A   1      -1.391   4.532   1.337  1.00 20.00    -0.061 A 
ATOM     16 C16  LIG A   1      -0.902   3.370   1.938  1.00 20.00    -0.049 A 
ATOM     17 C17  LIG A   1      -1.145   2.120   1.353  1.00 20.00    +0.051 A 
ATOM     18 C18  LIG A   1      -0.718   0.917   2.095  1.00 20.00    +0.261 C 
ATOM     19 O19  LIG A   1      -1.321   0.691   3.144  1.00 20.00    -0.269 OA
ATOM     20 N20  LIG A   1       0.331   0.111   1.608  1.00 20.00    -0.277 NA
ATOM     21 C21  LIG A   1       0.357  -1.246   2.192  1.00 20.00    +0.029 C 
ATOM     22 C22  LIG A   1      -0.315  -2.351   1.356  1.00 20.00    -0.034 C 
ATOM     23 C23  LIG A   1      -1.816  -2.162   1.025  1.00 20.00    -0.034 C 
ATOM     24 C24  LIG A   1      -2.150  -2.346  -0.484  1.00 20.00    +0.082 C 
ATOM     25 C25  LIG A   1      -3.624  -2.286  -0.851  1.00 20.00    +0.310 C 
ATOM     26 O26  LIG A   1      -4.079  -2.150  -1.978  1.00 20.00    -0.252 OA
ATOM     27 O27  LIG A   1      -4.456  -2.509   0.185  1.00 20.00    -0.481 OA
ATOM     28 C28  LIG A   1       1.421   0.674   0.916  1.00 20.00    +0.246 C 
ATOM     29 O29  LIG A   1       1.550   1.893   0.759  1.00 20.00    -0.273 OA
ATOM     30 C30  LIG A   1       2.542  -0.265   0.381  1.00 20.00    +0.088 C 
ATOM     31 N31  LIG A   1       3.590  -0.365   1.433  1.00 20.00    -0.320 NA
ATOM     32 O32  LIG A   1       2.357  -0.103   0.631  1.00 20.00    -0.504 OA
ATOM     33 C33  LIG A   1       1.047  -0.254   0.271  1.00 20.00    +0.161 A 
ATOM     34 C34  LIG A   1       0.478  -1.507   0.062  1.00 20.00    -0.016 A 
ATOM     35 C35  LIG A   1      -0.871  -1.595  -0.306  1.00 20.00    -0.055 A 
ATOM     36 C36  LIG A   1      -1.640  -0.437  -0.462  1.00 20.00    -0.016 A 
ATOM     37 C37  LIG A   1      -1.056   0.804  -0.249  1.00 20.00    +0.161 A 
ATOM     38 O38  LIG A   1      -1.804   1.935  -0.400  1.00 20.00    -0.504 OA
ATOM     39 C39  LIG A   1       0.281   0.897   0.116  1.00 20.00    +0.200 A 
ATOM     40 O40  LIG A   1       0.832   2.133   0.320  1.00 20.00    -0.502 OA
ATOM     41 H41  LIG A   1       5.038  -0.989  -0.683  1.00 20.00    +0.023 H 
ATOM     42 H42  LIG A   1       4.772  -0.451  -2.336  1.00 20.00    +0.023 H 
ATOM     43 H43  LIG A   1       3.778  -1.755  -1.661  1.00 20.00    +0.023 H 
ATOM     44 H44  LIG A   1       3.826   1.141  -0.689  1.00 20.00    +0.032 H 
ATOM     45 H45  LIG A   1       2.169   1.754  -2.067  1.00 20.00    +0.032 H 
ATOM     46 H46  LIG A   1       2.833   0.518  -3.093  1.00 20.00    +0.032 H 
ATOM     47 H47  LIG A   1       1.702  -1.906  -2.939  1.00 20.00    +0.063 H 
ATOM     48 H48  LIG A   1      -0.293  -3.138  -2.265  1.00 20.00    +0.063 H 
ATOM     49 H49  LIG A   1      -0.040   1.748  -1.541  1.00 20.00    +0.063 H 
ATOM     50 H50  LIG A   1      -3.053   3.144  -1.288  1.00 20.00    +0.063 H 
ATOM     51 H51  LIG A   1      -2.552   5.355  -0.282  1.00 20.00    +0.062 H 
ATOM     52 H52  LIG A   1      -1.192   5.501   1.789  1.00 20.00    +0.062 H 
ATOM     53 H53  LIG A   1      -0.336   3.438   2.864  1.00 20.00    +0.063 H 
ATOM     54 H54  LIG A   1       1.390  -1.546   2.377  1.00 20.00    +0.050 H 
ATOM     55 H55  LIG A   1      -0.115  -1.239   3.181  1.00 20.00    +0.050 H 
ATOM     56 H56  LIG A   1      -0.224  -3.285   1.928  1.00 20.00    +0.029 H 
ATOM     57 H57  LIG A   1       0.281  -2.525   0.459  1.00 20.00    +0.029 H 
ATOM     58 H58  LIG A   1      -2.188  -1.203   1.391  1.00 20.00    +0.028 H 
ATOM     59 H59  LIG A   1      -2.377  -2.913   1.597  1.00 20.00    +0.028 H 
ATOM     60 H60  LIG A   1      -1.885  -3.389  -0.715  1.00 20.00    +0.047 H 
ATOM     61 H61  LIG A   1      -5.340  -2.332  -0.199  1.00 20.00    +0.296 HD
ATOM     62 H62  LIG A   1       2.137  -1.263   0.201  1.00 20.00    +0.057 H 
ATOM     63 H63  LIG A   1       3.177  -0.551   2.344  1.00 20.00    +0.119 HD
ATOM     64 H64  LIG A   1       4.036   0.552   1.528  1.00 20.00    +0.119 HD
ATOM     65 H65  LIG A   1       2.755  -0.988   0.699  1.00 20.00    +0.293 HD
ATOM     66 H66  LIG A   1       1.057  -2.417   0.177  1.00 20.00    +0.066 H 
ATOM     67 H67  LIG A   1      -1.326  -2.569  -0.472  1.00 20.00    +0.063 H 
ATOM     68 H68  LIG A   1      -2.686  -0.503  -0.747  1.00 20.00    +0.066 H 
ATOM     69 H69  LIG A   1      -1.185   2.665  -0.201  1.00 20.00    +0.293 HD
ATOM     70 H70  LIG A   1       1.762   1.940   0.562  1.00 20.00    +0.293 HD
ENDROOT
TORSDOF 0
