MODEL 1
REMARK VINA RESULT:   -12.500      0.000      0.000
REMARK INTER + INTRA:         -12.500
REMARK INTER:                 -12.500
REMARK INTRA:                   0.000
REMARK UNBOUND:                 0.000
ROOT
ATOM      1 N1   LIG A   1      16.977  16.822   5.841  1.00 20.00    -0.287 NA
ATOM      2 C2   LIG A   1      18.048  16.417   5.235  1.00 20.00    +0.110 C 
ATOM      3 N3   LIG A   1      19.163  17.195   5.303  1.00 20.00    -0.386 NA
ATOM      4 C4   LIG A   1      18.075  15.092   4.475  1.00 20.00    +0.075 C 
ATOM      5 N5   LIG A   1      16.848  14.963   3.722  1.00 20.00    -0.348 NA
ATOM      6 C6   LIG A   1      16.481  13.761   3.157  1.00 20.00    +0.237 C 
ATOM      7 O7   LIG A   1      17.082  12.713   3.365  1.00 20.00    -0.273 OA
ATOM      8 C8   LIG A   1      15.289  13.882   2.191  1.00 20.00    +0.087 C 
ATOM      9 C9   LIG A   1      14.456  12.608   2.072  1.00 20.00    -0.027 C 
ATOM     10 C10  LIG A   1      13.014  13.061   2.249  1.00 20.00    -0.039 C 
ATOM     11 C11  LIG A   1      13.065  14.560   2.032  1.00 20.00    -0.004 C 
ATOM     12 N12  LIG A   1      14.347  14.950   2.631  1.00 20.00    -0.306 NA
ATOM     13 N13  LIG A   1       5.232   9.607  -3.973  1.00 20.00    -0.330 NA
ATOM     14 C14  LIG A   1       5.809  10.824  -3.412  1.00 20.00    -0.008 C 
ATOM     15 C15  LIG A   1       7.336  10.755  -3.404  1.00 20.00    -0.040 C 
ATOM     16 C16  LIG A   1       7.944  12.036  -2.824  1.00 20.00    -0.039 C 
ATOM     17 C17  LIG A   1       9.475  12.037  -2.853  1.00 20.00    -0.005 C 
ATOM     18 N18  LIG A   1      10.016  10.983  -1.996  1.00 20.00    -0.317 NA
ATOM     19 C19  LIG A   1      11.479  10.946  -2.057  1.00 20.00    -0.003 C 
ATOM     20 C20  LIG A   1      12.002   9.834  -1.147  1.00 20.00    -0.023 C 
ATOM     21 C21  LIG A   1      13.512   9.629  -1.281  1.00 20.00    +0.016 C 
ATOM     22 N22  LIG A   1      14.285  10.771  -0.812  1.00 20.00    -0.385 NA
ATOM     23 C23  LIG A   1      14.458  11.084   0.530  1.00 20.00    +0.034 A 
ATOM     24 C24  LIG A   1      14.163  10.214   1.582  1.00 20.00    -0.038 A 
ATOM     25 C25  LIG A   1      14.434  10.559   2.915  1.00 20.00    -0.049 A 
ATOM     26 C26  LIG A   1      15.039  11.778   3.239  1.00 20.00    +0.017 A 
ATOM     27 C27  LIG A   1      15.339  12.121   4.627  1.00 20.00    +0.134 A 
ATOM     28 C28  LIG A   1      15.100  11.519   5.846  1.00 20.00    -0.015 A 
ATOM     29 C29  LIG A   1      15.675  12.356   6.835  1.00 20.00    -0.015 A 
ATOM     30 C30  LIG A   1      16.237  13.429   6.172  1.00 20.00    +0.134 A 
ATOM     31 C31  LIG A   1      16.984  14.613   6.587  1.00 20.00    +0.017 A 
ATOM     32 C32  LIG A   1      17.419  14.760   7.909  1.00 20.00    -0.049 A 
ATOM     33 C33  LIG A   1      18.152  15.887   8.310  1.00 20.00    -0.038 A 
ATOM     34 C34  LIG A   1      18.450  16.918   7.416  1.00 20.00    +0.034 A 
ATOM     35 N35  LIG A   1      19.236  18.022   7.731  1.00 20.00    -0.385 NA
ATOM     36 C36  LIG A   1      19.559  18.403   9.102  1.00 20.00    +0.016 C 
ATOM     37 C37  LIG A   1      20.873  17.764   9.554  1.00 20.00    -0.023 C 
ATOM     38 C38  LIG A   1      22.101  18.321   8.827  1.00 20.00    -0.003 C 
ATOM     39 N39  LIG A   1      22.363  19.708   9.229  1.00 20.00    -0.317 NA
ATOM     40 C40  LIG A   1      23.470  20.304   8.477  1.00 20.00    -0.005 C 
ATOM     41 C41  LIG A   1      23.114  20.688   7.035  1.00 20.00    -0.039 C 
ATOM     42 C42  LIG A   1      21.955  21.690   6.955  1.00 20.00    -0.040 C 
ATOM     43 C43  LIG A   1      21.554  22.044   5.521  1.00 20.00    -0.008 C 
ATOM     44 N44  LIG A   1      22.601  22.750   4.789  1.00 20.00    -0.330 NA
ATOM     45 C45  LIG A   1      18.037  16.753   6.089  1.00 20.00    -0.038 A 
ATOM     46 C46  LIG A   1      17.307  15.628   5.681  1.00 20.00    -0.049 A 
ATOM     47 O47  LIG A   1      16.023  13.287   4.830  1.00 20.00    -0.456 OA
ATOM     48 C48  LIG A   1      15.362  12.641   2.187  1.00 20.00    -0.049 A 
ATOM     49 C49  LIG A   1      15.085  12.293   0.858  1.00 20.00    -0.038 A 
ATOM     50 H50  LIG A   1      16.235  16.125   5.692  1.00 20.00    +0.189 HD
ATOM     51 H51  LIG A   1      19.087  17.910   6.020  1.00 20.00    +0.157 HD
ATOM     52 H52  LIG A   1      20.062  16.728   5.287  1.00 20.00    +0.157 HD
ATOM     53 H53  LIG A   1      18.918  15.067   3.778  1.00 20.00    +0.058 H 
ATOM     54 H54  LIG A   1      18.165  14.266   5.187  1.00 20.00    +0.058 H 
ATOM     55 H55  LIG A   1      16.417  15.798   3.329  1.00 20.00    +0.163 HD
ATOM     56 H56  LIG A   1      15.699  14.156   1.211  1.00 20.00    +0.057 H 
ATOM     57 H57  LIG A   1      14.590  12.168   1.076  1.00 20.00    +0.029 H 
ATOM     58 H58  LIG A   1      14.709  11.842   2.812  1.00 20.00    +0.029 H 
ATOM     59 H59  LIG A   1      12.680  12.837   3.269  1.00 20.00    +0.028 H 
ATOM     60 H60  LIG A   1      12.335  12.561   1.552  1.00 20.00    +0.028 H 
ATOM     61 H61  LIG A   1      13.061  14.808   0.965  1.00 20.00    +0.043 H 
ATOM     62 H62  LIG A   1      12.226  15.076   2.508  1.00 20.00    +0.043 H 
ATOM     63 H63  LIG A   1      14.247  14.870   3.647  1.00 20.00    +0.123 HD
ATOM     64 H64  LIG A   1       5.592   9.464  -4.915  1.00 20.00    +0.118 HD
ATOM     65 H65  LIG A   1       5.551   8.802  -3.432  1.00 20.00    +0.118 HD
ATOM     66 H66  LIG A   1       5.431  10.960  -2.393  1.00 20.00    +0.043 H 
ATOM     67 H67  LIG A   1       5.471  11.681  -4.004  1.00 20.00    +0.043 H 
ATOM     68 H68  LIG A   1       7.705  10.608  -4.427  1.00 20.00    +0.028 H 
ATOM     69 H69  LIG A   1       7.659   9.888  -2.816  1.00 20.00    +0.028 H 
ATOM     70 H70  LIG A   1       7.587  12.898  -3.405  1.00 20.00    +0.028 H 
ATOM     71 H71  LIG A   1       7.591  12.182  -1.795  1.00 20.00    +0.028 H 
ATOM     72 H72  LIG A   1       9.834  13.016  -2.512  1.00 20.00    +0.043 H 
ATOM     73 H73  LIG A   1       9.813  11.899  -3.887  1.00 20.00    +0.043 H 
ATOM     74 H74  LIG A   1       9.720  11.144  -1.032  1.00 20.00    +0.122 HD
ATOM     75 H75  LIG A   1      11.893  11.911  -1.742  1.00 20.00    +0.043 H 
ATOM     76 H76  LIG A   1      11.801  10.756  -3.087  1.00 20.00    +0.043 H 
ATOM     77 H77  LIG A   1      11.731  10.046  -0.107  1.00 20.00    +0.030 H 
ATOM     78 H78  LIG A   1      11.510   8.889  -1.414  1.00 20.00    +0.030 H 
ATOM     79 H79  LIG A   1      13.818   8.714  -0.760  1.00 20.00    +0.049 H 
ATOM     80 H80  LIG A   1      13.762   9.463  -2.335  1.00 20.00    +0.049 H 
ATOM     81 H81  LIG A   1      14.256  11.583  -1.421  1.00 20.00    +0.160 HD
ATOM     82 H82  LIG A   1      13.716   9.243   1.395  1.00 20.00    +0.064 H 
ATOM     83 H83  LIG A   1      14.177   9.844   3.693  1.00 20.00    +0.063 H 
ATOM     84 H84  LIG A   1      14.580  10.586   6.008  1.00 20.00    +0.066 H 
ATOM     85 H85  LIG A   1      15.679  12.190   7.903  1.00 20.00    +0.066 H 
ATOM     86 H86  LIG A   1      17.212  13.990   8.649  1.00 20.00    +0.063 H 
ATOM     87 H87  LIG A   1      18.486  15.930   9.342  1.00 20.00    +0.064 H 
ATOM     88 H88  LIG A   1      19.065  18.820   7.124  1.00 20.00    +0.160 HD
ATOM     89 H89  LIG A   1      19.641  19.496   9.147  1.00 20.00    +0.049 H 
ATOM     90 H90  LIG A   1      18.747  18.141   9.790  1.00 20.00    +0.049 H 
ATOM     91 H91  LIG A   1      20.990  17.913  10.635  1.00 20.00    +0.030 H 
ATOM     92 H92  LIG A   1      20.840  16.680   9.395  1.00 20.00    +0.030 H 
ATOM     93 H93  LIG A   1      22.970  17.703   9.081  1.00 20.00    +0.043 H 
ATOM     94 H94  LIG A   1      21.948  18.239   7.746  1.00 20.00    +0.043 H 
ATOM     95 H95  LIG A   1      22.604  19.715  10.220  1.00 20.00    +0.122 HD
ATOM     96 H96  LIG A   1      23.780  21.215   9.004  1.00 20.00    +0.043 H 
ATOM     97 H97  LIG A   1      24.341  19.637   8.481  1.00 20.00    +0.043 H 
ATOM     98 H98  LIG A   1      22.871  19.795   6.448  1.00 20.00    +0.028 H 
ATOM     99 H99  LIG A   1      24.010  21.125   6.578  1.00 20.00    +0.028 H 
ATOM    100 H100 LIG A   1      22.220  22.603   7.503  1.00 20.00    +0.028 H 
ATOM    101 H101 LIG A   1      21.072  21.272   7.453  1.00 20.00    +0.028 H 
ATOM    102 H102 LIG A   1      21.279  21.138   4.971  1.00 20.00    +0.043 H 
ATOM    103 H103 LIG A   1      20.665  22.683   5.549  1.00 20.00    +0.043 H 
ATOM    104 H104 LIG A   1      22.913  23.555   5.332  1.00 20.00    +0.118 HD
ATOM    105 H105 LIG A   1      23.414  22.149   4.682  1.00 20.00    +0.118 HD
ATOM    106 H106 LIG A   1      18.288  17.503   5.344  1.00 20.00    +0.064 H 
ATOM    107 H107 LIG A   1      17.006  15.553   4.638  1.00 20.00    +0.063 H 
ATOM    108 H108 LIG A   1      15.850  13.593   2.385  1.00 20.00    +0.063 H 
ATOM    109 H109 LIG A   1      15.380  12.984   0.072  1.00 20.00    +0.064 H 
ENDROOT
TORSDOF 0
                                                                                                                
ENDMDL
MODEL 2
REMARK VINA RESULT:   -11.675      8.348     13.505
REMARK INTER + INTRA:         -11.675
REMARK INTER:                 -11.675
REMARK INTRA:                   0.000
REMARK UNBOUND:                 0.000
ROOT
ATOM      1 N1   LIG A   1      18.908  23.899  14.231  1.00 20.00    -0.287 NA
ATOM      2 C2   LIG A   1      18.644  24.654  13.212  1.00 20.00    +0.110 C 
ATOM      3 N3   LIG A   1      17.803  25.710  13.390  1.00 20.00    -0.386 NA
ATOM      4 C4   LIG A   1      19.269  24.387  11.844  1.00 20.00    +0.075 C 
ATOM      5 N5   LIG A   1      19.238  22.964  11.589  1.00 20.00    -0.348 NA
ATOM      6 C6   LIG A   1      19.966  22.407  10.560  1.00 20.00    +0.237 C 
ATOM      7 O7   LIG A   1      20.777  23.042   9.895  1.00 20.00    -0.273 OA
ATOM      8 C8   LIG A   1      19.608  20.935  10.289  1.00 20.00    +0.087 C 
ATOM      9 C9   LIG A   1      20.750  20.121   9.687  1.00 20.00    -0.027 C 
ATOM     10 C10  LIG A   1      20.823  18.858  10.534  1.00 20.00    -0.039 C 
ATOM     11 C11  LIG A   1      19.496  18.822  11.265  1.00 20.00    -0.004 C 
ATOM     12 N12  LIG A   1      19.221  20.236  11.547  1.00 20.00    -0.306 NA
ATOM     13 N13  LIG A   1      21.915   9.279   6.260  1.00 20.00    -0.330 NA
ATOM     14 C14  LIG A   1      21.124  10.028   7.231  1.00 20.00    -0.008 C 
ATOM     15 C15  LIG A   1      20.828  11.441   6.726  1.00 20.00    -0.040 C 
ATOM     16 C16  LIG A   1      19.989  12.225   7.740  1.00 20.00    -0.039 C 
ATOM     17 C17  LIG A   1      19.616  13.627   7.250  1.00 20.00    -0.005 C 
ATOM     18 N18  LIG A   1      20.808  14.456   7.076  1.00 20.00    -0.317 NA
ATOM     19 C19  LIG A   1      20.464  15.783   6.561  1.00 20.00    -0.003 C 
ATOM     20 C20  LIG A   1      21.736  16.616   6.397  1.00 20.00    -0.023 C 
ATOM     21 C21  LIG A   1      21.474  17.958   5.711  1.00 20.00    +0.016 C 
ATOM     22 N22  LIG A   1      20.646  18.852   6.509  1.00 20.00    -0.385 NA
ATOM     23 C23  LIG A   1      21.104  19.528   7.632  1.00 20.00    +0.034 A 
ATOM     24 C24  LIG A   1      22.453  19.661   7.970  1.00 20.00    -0.038 A 
ATOM     25 C25  LIG A   1      22.859  20.425   9.076  1.00 20.00    -0.049 A 
ATOM     26 C26  LIG A   1      21.927  21.107   9.865  1.00 20.00    +0.017 A 
ATOM     27 C27  LIG A   1      22.358  21.919  11.001  1.00 20.00    +0.134 A 
ATOM     28 C28  LIG A   1      23.573  22.168  11.607  1.00 20.00    -0.015 A 
ATOM     29 C29  LIG A   1      23.324  23.079  12.663  1.00 20.00    -0.015 A 
ATOM     30 C30  LIG A   1      21.969  23.343  12.651  1.00 20.00    +0.134 A 
ATOM     31 C31  LIG A   1      21.083  24.192  13.443  1.00 20.00    +0.017 A 
ATOM     32 C32  LIG A   1      21.603  25.103  14.370  1.00 20.00    -0.049 A 
ATOM     33 C33  LIG A   1      20.757  25.934  15.122  1.00 20.00    -0.038 A 
ATOM     34 C34  LIG A   1      19.368  25.865  14.995  1.00 20.00    +0.034 A 
ATOM     35 N35  LIG A   1      18.481  26.712  15.653  1.00 20.00    -0.385 NA
ATOM     36 C36  LIG A   1      18.867  27.538  16.792  1.00 20.00    +0.016 C 
ATOM     37 C37  LIG A   1      19.324  28.925  16.335  1.00 20.00    -0.023 C 
ATOM     38 C38  LIG A   1      18.188  29.778  15.760  1.00 20.00    -0.003 C 
ATOM     39 N39  LIG A   1      17.246  30.175  16.813  1.00 20.00    -0.317 NA
ATOM     40 C40  LIG A   1      16.094  30.907  16.281  1.00 20.00    -0.005 C 
ATOM     41 C41  LIG A   1      15.067  30.023  15.562  1.00 20.00    -0.039 C 
ATOM     42 C42  LIG A   1      14.494  28.923  16.464  1.00 20.00    -0.040 C 
ATOM     43 C43  LIG A   1      13.505  28.001  15.746  1.00 20.00    -0.008 C 
ATOM     44 N44  LIG A   1      12.291  28.686  15.314  1.00 20.00    -0.330 NA
ATOM     45 C45  LIG A   1      18.856  24.973  14.046  1.00 20.00    -0.038 A 
ATOM     46 C46  LIG A   1      19.694  24.142  13.290  1.00 20.00    -0.049 A 
ATOM     47 O47  LIG A   1      21.383  22.628  11.645  1.00 20.00    -0.456 OA
ATOM     48 C48  LIG A   1      20.577  21.001   9.513  1.00 20.00    -0.049 A 
ATOM     49 C49  LIG A   1      20.178  20.233   8.411  1.00 20.00    -0.038 A 
ATOM     50 H50  LIG A   1      19.553  23.157  13.928  1.00 20.00    +0.189 HD
ATOM     51 H51  LIG A   1      17.651  25.915  14.373  1.00 20.00    +0.157 HD
ATOM     52 H52  LIG A   1      17.958  26.533  12.820  1.00 20.00    +0.157 HD
ATOM     53 H53  LIG A   1      18.705  24.896  11.058  1.00 20.00    +0.058 H 
ATOM     54 H54  LIG A   1      20.304  24.744  11.841  1.00 20.00    +0.058 H 
ATOM     55 H55  LIG A   1      18.454  22.415  11.937  1.00 20.00    +0.163 HD
ATOM     56 H56  LIG A   1      18.747  20.936   9.608  1.00 20.00    +0.057 H 
ATOM     57 H57  LIG A   1      20.514  19.860   8.648  1.00 20.00    +0.029 H 
ATOM     58 H58  LIG A   1      21.715  20.639   9.690  1.00 20.00    +0.029 H 
ATOM     59 H59  LIG A   1      21.648  18.942  11.251  1.00 20.00    +0.028 H 
ATOM     60 H60  LIG A   1      20.991  17.963   9.928  1.00 20.00    +0.028 H 
ATOM     61 H61  LIG A   1      18.704  18.407  10.631  1.00 20.00    +0.043 H 
ATOM     62 H62  LIG A   1      19.545  18.231  12.183  1.00 20.00    +0.043 H 
ATOM     63 H63  LIG A   1      19.875  20.534  12.276  1.00 20.00    +0.123 HD
ATOM     64 H64  LIG A   1      21.419   9.249   5.370  1.00 20.00    +0.118 HD
ATOM     65 H65  LIG A   1      22.784   9.782   6.073  1.00 20.00    +0.118 HD
ATOM     66 H66  LIG A   1      21.671  10.071   8.178  1.00 20.00    +0.043 H 
ATOM     67 H67  LIG A   1      20.189   9.489   7.417  1.00 20.00    +0.043 H 
ATOM     68 H68  LIG A   1      20.289  11.388   5.772  1.00 20.00    +0.028 H 
ATOM     69 H69  LIG A   1      21.772  11.965   6.536  1.00 20.00    +0.028 H 
ATOM     70 H70  LIG A   1      19.062  11.672   7.943  1.00 20.00    +0.028 H 
ATOM     71 H71  LIG A   1      20.529  12.296   8.693  1.00 20.00    +0.028 H 
ATOM     72 H72  LIG A   1      18.943  14.089   7.982  1.00 20.00    +0.043 H 
ATOM     73 H73  LIG A   1      19.071  13.541   6.302  1.00 20.00    +0.043 H 
ATOM     74 H74  LIG A   1      21.286  14.554   7.974  1.00 20.00    +0.122 HD
ATOM     75 H75  LIG A   1      19.774  16.287   7.249  1.00 20.00    +0.043 H 
ATOM     76 H76  LIG A   1      19.966  15.684   5.590  1.00 20.00    +0.043 H 
ATOM     77 H77  LIG A   1      22.210  16.767   7.374  1.00 20.00    +0.030 H 
ATOM     78 H78  LIG A   1      22.454  16.059   5.780  1.00 20.00    +0.030 H 
ATOM     79 H79  LIG A   1      22.422  18.440   5.448  1.00 20.00    +0.049 H 
ATOM     80 H80  LIG A   1      20.960  17.782   4.759  1.00 20.00    +0.049 H 
ATOM     81 H81  LIG A   1      19.665  18.590   6.561  1.00 20.00    +0.160 HD
ATOM     82 H82  LIG A   1      23.226  19.177   7.383  1.00 20.00    +0.064 H 
ATOM     83 H83  LIG A   1      23.922  20.486   9.295  1.00 20.00    +0.063 H 
ATOM     84 H84  LIG A   1      24.528  21.750  11.322  1.00 20.00    +0.066 H 
ATOM     85 H85  LIG A   1      24.051  23.495  13.347  1.00 20.00    +0.066 H 
ATOM     86 H86  LIG A   1      22.676  25.197  14.513  1.00 20.00    +0.063 H 
ATOM     87 H87  LIG A   1      21.221  26.640  15.804  1.00 20.00    +0.064 H 
ATOM     88 H88  LIG A   1      17.546  26.321  15.741  1.00 20.00    +0.160 HD
ATOM     89 H89  LIG A   1      18.003  27.632  17.460  1.00 20.00    +0.049 H 
ATOM     90 H90  LIG A   1      19.648  27.054  17.389  1.00 20.00    +0.049 H 
ATOM     91 H91  LIG A   1      19.780  29.449  17.185  1.00 20.00    +0.030 H 
ATOM     92 H92  LIG A   1      20.106  28.833  15.573  1.00 20.00    +0.030 H 
ATOM     93 H93  LIG A   1      18.621  30.678  15.307  1.00 20.00    +0.043 H 
ATOM     94 H94  LIG A   1      17.686  29.221  14.963  1.00 20.00    +0.043 H 
ATOM     95 H95  LIG A   1      17.737  30.779  17.473  1.00 20.00    +0.122 HD
ATOM     96 H96  LIG A   1      15.591  31.397  17.124  1.00 20.00    +0.043 H 
ATOM     97 H97  LIG A   1      16.426  31.713  15.614  1.00 20.00    +0.043 H 
ATOM     98 H98  LIG A   1      15.508  29.573  14.665  1.00 20.00    +0.028 H 
ATOM     99 H99  LIG A   1      14.256  30.674  15.215  1.00 20.00    +0.028 H 
ATOM    100 H100 LIG A   1      14.010  29.379  17.337  1.00 20.00    +0.028 H 
ATOM    101 H101 LIG A   1      15.310  28.300  16.848  1.00 20.00    +0.028 H 
ATOM    102 H102 LIG A   1      13.984  27.536  14.879  1.00 20.00    +0.043 H 
ATOM    103 H103 LIG A   1      13.218  27.192  16.426  1.00 20.00    +0.043 H 
ATOM    104 H104 LIG A   1      11.879  29.183  16.104  1.00 20.00    +0.118 HD
ATOM    105 H105 LIG A   1      12.521  29.395  14.622  1.00 20.00    +0.118 HD
ATOM    106 H106 LIG A   1      17.784  24.918  13.875  1.00 20.00    +0.064 H 
ATOM    107 H107 LIG A   1      19.242  23.462  12.571  1.00 20.00    +0.063 H 
ATOM    108 H108 LIG A   1      19.816  21.528  10.085  1.00 20.00    +0.063 H 
ATOM    109 H109 LIG A   1      19.120  20.204   8.160  1.00 20.00    +0.064 H 
ENDROOT
TORSDOF 0
                                                                                                                
ENDMDL
MODEL 3
REMARK VINA RESULT:   -11.602      4.012     14.386
REMARK INTER + INTRA:         -11.602
REMARK INTER:                 -11.602
REMARK INTRA:                   0.000
REMARK UNBOUND:                 0.000
ROOT
ATOM      1 N1   LIG A   1      18.483  16.885   4.684  1.00 20.00    -0.287 NA
ATOM      2 C2   LIG A   1      17.732  16.393   5.618  1.00 20.00    +0.110 C 
ATOM      3 N3   LIG A   1      16.613  15.708   5.255  1.00 20.00    -0.386 NA
ATOM      4 C4   LIG A   1      18.094  16.556   7.093  1.00 20.00    +0.075 C 
ATOM      5 N5   LIG A   1      18.553  17.909   7.313  1.00 20.00    -0.348 NA
ATOM      6 C6   LIG A   1      19.192  18.266   8.480  1.00 20.00    +0.237 C 
ATOM      7 O7   LIG A   1      19.531  17.451   9.332  1.00 20.00    -0.273 OA
ATOM      8 C8   LIG A   1      19.374  19.786   8.635  1.00 20.00    +0.087 C 
ATOM      9 C9   LIG A   1      20.577  20.183   9.486  1.00 20.00    -0.027 C 
ATOM     10 C10  LIG A   1      21.312  21.233   8.665  1.00 20.00    -0.039 C 
ATOM     11 C11  LIG A   1      20.296  21.676   7.631  1.00 20.00    -0.004 C 
ATOM     12 N12  LIG A   1      19.571  20.441   7.311  1.00 20.00    -0.306 NA
ATOM     13 N13  LIG A   1      25.009  30.136  12.938  1.00 20.00    -0.330 NA
ATOM     14 C14  LIG A   1      24.227  29.632  11.815  1.00 20.00    -0.008 C 
ATOM     15 C15  LIG A   1      23.310  28.489  12.252  1.00 20.00    -0.040 C 
ATOM     16 C16  LIG A   1      22.482  27.965  11.075  1.00 20.00    -0.039 C 
ATOM     17 C17  LIG A   1      21.503  26.859  11.479  1.00 20.00    -0.005 C 
ATOM     18 N18  LIG A   1      22.218  25.673  11.950  1.00 20.00    -0.317 NA
ATOM     19 C19  LIG A   1      21.288  24.628  12.385  1.00 20.00    -0.003 C 
ATOM     20 C20  LIG A   1      22.075  23.408  12.867  1.00 20.00    -0.023 C 
ATOM     21 C21  LIG A   1      21.176  22.338  13.486  1.00 20.00    +0.016 C 
ATOM     22 N22  LIG A   1      20.267  21.731  12.523  1.00 20.00    -0.385 NA
ATOM     23 C23  LIG A   1      20.668  20.819  11.556  1.00 20.00    +0.034 A 
ATOM     24 C24  LIG A   1      21.902  20.164  11.560  1.00 20.00    -0.038 A 
ATOM     25 C25  LIG A   1      22.218  19.192  10.598  1.00 20.00    -0.049 A 
ATOM     26 C26  LIG A   1      21.295  18.820   9.615  1.00 20.00    +0.017 A 
ATOM     27 C27  LIG A   1      21.623  17.791   8.631  1.00 20.00    +0.134 A 
ATOM     28 C28  LIG A   1      22.752  17.051   8.344  1.00 20.00    -0.015 A 
ATOM     29 C29  LIG A   1      22.413  16.188   7.272  1.00 20.00    -0.015 A 
ATOM     30 C30  LIG A   1      21.093  16.443   6.956  1.00 20.00    +0.134 A 
ATOM     31 C31  LIG A   1      20.149  15.900   5.984  1.00 20.00    +0.017 A 
ATOM     32 C32  LIG A   1      20.471  14.769   5.225  1.00 20.00    -0.049 A 
ATOM     33 C33  LIG A   1      19.561  14.231   4.302  1.00 20.00    -0.038 A 
ATOM     34 C34  LIG A   1      18.313  14.819   4.084  1.00 20.00    +0.034 A 
ATOM     35 N35  LIG A   1      17.338  14.293   3.241  1.00 20.00    -0.385 NA
ATOM     36 C36  LIG A   1      17.620  13.266   2.243  1.00 20.00    +0.016 C 
ATOM     37 C37  LIG A   1      17.399  11.866   2.817  1.00 20.00    -0.023 C 
ATOM     38 C38  LIG A   1      15.927  11.556   3.110  1.00 20.00    -0.003 C 
ATOM     39 N39  LIG A   1      15.163  11.423   1.864  1.00 20.00    -0.317 NA
ATOM     40 C40  LIG A   1      13.732  11.226   2.109  1.00 20.00    -0.005 C 
ATOM     41 C41  LIG A   1      12.989  12.496   2.542  1.00 20.00    -0.039 C 
ATOM     42 C42  LIG A   1      13.094  13.627   1.512  1.00 20.00    -0.040 C 
ATOM     43 C43  LIG A   1      12.400  14.919   1.953  1.00 20.00    -0.008 C 
ATOM     44 N44  LIG A   1      10.954  14.778   2.085  1.00 20.00    -0.330 NA
ATOM     45 C45  LIG A   1      17.985  15.932   4.866  1.00 20.00    -0.038 A 
ATOM     46 C46  LIG A   1      18.888  16.473   5.792  1.00 20.00    -0.049 A 
ATOM     47 O47  LIG A   1      20.619  17.425   7.778  1.00 20.00    -0.456 OA
ATOM     48 C48  LIG A   1      20.047  19.451   9.625  1.00 20.00    -0.049 A 
ATOM     49 C49  LIG A   1      19.739  20.425  10.585  1.00 20.00    -0.038 A 
ATOM     50 H50  LIG A   1      19.279  17.367   5.125  1.00 20.00    +0.189 HD
ATOM     51 H51  LIG A   1      16.615  15.469   4.268  1.00 20.00    +0.157 HD
ATOM     52 H52  LIG A   1      16.312  14.951   5.857  1.00 20.00    +0.157 HD
ATOM     53 H53  LIG A   1      17.219  16.376   7.725  1.00 20.00    +0.058 H 
ATOM     54 H54  LIG A   1      18.885  15.846   7.354  1.00 20.00    +0.058 H 
ATOM     55 H55  LIG A   1      18.136  18.668   6.776  1.00 20.00    +0.163 HD
ATOM     56 H56  LIG A   1      18.450  20.173   9.085  1.00 20.00    +0.057 H 
ATOM     57 H57  LIG A   1      20.236  20.621  10.432  1.00 20.00    +0.029 H 
ATOM     58 H58  LIG A   1      21.246  19.350   9.726  1.00 20.00    +0.029 H 
ATOM     59 H59  LIG A   1      22.179  20.776   8.173  1.00 20.00    +0.028 H 
ATOM     60 H60  LIG A   1      21.671  22.063   9.280  1.00 20.00    +0.028 H 
ATOM     61 H61  LIG A   1      19.604  22.417   8.047  1.00 20.00    +0.043 H 
ATOM     62 H62  LIG A   1      20.768  22.107   6.744  1.00 20.00    +0.043 H 
ATOM     63 H63  LIG A   1      20.205  19.847   6.768  1.00 20.00    +0.123 HD
ATOM     64 H64  LIG A   1      24.380  30.441  13.680  1.00 20.00    +0.118 HD
ATOM     65 H65  LIG A   1      25.556  29.373  13.339  1.00 20.00    +0.118 HD
ATOM     66 H66  LIG A   1      24.911  29.291  11.030  1.00 20.00    +0.043 H 
ATOM     67 H67  LIG A   1      23.635  30.454  11.398  1.00 20.00    +0.043 H 
ATOM     68 H68  LIG A   1      22.637  28.838  13.045  1.00 20.00    +0.028 H 
ATOM     69 H69  LIG A   1      23.916  27.678  12.674  1.00 20.00    +0.028 H 
ATOM     70 H70  LIG A   1      21.906  28.794  10.643  1.00 20.00    +0.028 H 
ATOM     71 H71  LIG A   1      23.149  27.600  10.284  1.00 20.00    +0.028 H 
ATOM     72 H72  LIG A   1      20.884  26.601  10.612  1.00 20.00    +0.043 H 
ATOM     73 H73  LIG A   1      20.838  27.239  12.264  1.00 20.00    +0.043 H 
ATOM     74 H74  LIG A   1      22.807  25.312  11.198  1.00 20.00    +0.122 HD
ATOM     75 H75  LIG A   1      20.629  24.343  11.557  1.00 20.00    +0.043 H 
ATOM     76 H76  LIG A   1      20.665  25.006  13.203  1.00 20.00    +0.043 H 
ATOM     77 H77  LIG A   1      22.658  22.992  12.038  1.00 20.00    +0.030 H 
ATOM     78 H78  LIG A   1      22.797  23.725  13.632  1.00 20.00    +0.030 H 
ATOM     79 H79  LIG A   1      21.784  21.572  13.981  1.00 20.00    +0.049 H 
ATOM     80 H80  LIG A   1      20.572  22.790  14.282  1.00 20.00    +0.049 H 
ATOM     81 H81  LIG A   1      19.499  22.327  12.230  1.00 20.00    +0.160 HD
ATOM     82 H82  LIG A   1      22.652  20.390  12.311  1.00 20.00    +0.064 H 
ATOM     83 H83  LIG A   1      23.198  18.722  10.647  1.00 20.00    +0.063 H 
ATOM     84 H84  LIG A   1      23.706  17.116   8.848  1.00 20.00    +0.066 H 
ATOM     85 H85  LIG A   1      23.057  15.464   6.792  1.00 20.00    +0.066 H 
ATOM     86 H86  LIG A   1      21.431  14.272   5.350  1.00 20.00    +0.063 H 
ATOM     87 H87  LIG A   1      19.858  13.336   3.764  1.00 20.00    +0.064 H 
ATOM     88 H88  LIG A   1      16.668  14.988   2.922  1.00 20.00    +0.160 HD
ATOM     89 H89  LIG A   1      16.956  13.426   1.385  1.00 20.00    +0.049 H 
ATOM     90 H90  LIG A   1      18.638  13.364   1.848  1.00 20.00    +0.049 H 
ATOM     91 H91  LIG A   1      17.796  11.124   2.113  1.00 20.00    +0.030 H 
ATOM     92 H92  LIG A   1      17.969  11.744   3.746  1.00 20.00    +0.030 H 
ATOM     93 H93  LIG A   1      15.872  10.613   3.668  1.00 20.00    +0.043 H 
ATOM     94 H94  LIG A   1      15.514  12.339   3.752  1.00 20.00    +0.043 H 
ATOM     95 H95  LIG A   1      15.518  10.614   1.353  1.00 20.00    +0.122 HD
ATOM     96 H96  LIG A   1      13.279  10.869   1.176  1.00 20.00    +0.043 H 
ATOM     97 H97  LIG A   1      13.575  10.431   2.849  1.00 20.00    +0.043 H 
ATOM     98 H98  LIG A   1      13.359  12.846   3.513  1.00 20.00    +0.028 H 
ATOM     99 H99  LIG A   1      11.936  12.230   2.690  1.00 20.00    +0.028 H 
ATOM    100 H100 LIG A   1      12.678  13.292   0.553  1.00 20.00    +0.028 H 
ATOM    101 H101 LIG A   1      14.150  13.863   1.330  1.00 20.00    +0.028 H 
ATOM    102 H102 LIG A   1      12.817  15.265   2.904  1.00 20.00    +0.043 H 
ATOM    103 H103 LIG A   1      12.602  15.700   1.212  1.00 20.00    +0.043 H 
ATOM    104 H104 LIG A   1      10.569  14.386   1.226  1.00 20.00    +0.118 HD
ATOM    105 H105 LIG A   1      10.737  14.112   2.823  1.00 20.00    +0.118 HD
ATOM    106 H106 LIG A   1      17.005  16.395   4.769  1.00 20.00    +0.064 H 
ATOM    107 H107 LIG A   1      18.584  17.343   6.369  1.00 20.00    +0.063 H 
ATOM    108 H108 LIG A   1      19.289  19.184   8.892  1.00 20.00    +0.063 H 
ATOM    109 H109 LIG A   1      18.746  20.867  10.570  1.00 20.00    +0.064 H 
ENDROOT
TORSDOF 0
                                                                                                                
ENDMDL
MODEL 4
REMARK VINA RESULT:   -11.568      8.963     14.300
REMARK INTER + INTRA:         -11.568
REMARK INTER:                 -11.568
REMARK INTRA:                   0.000
REMARK UNBOUND:                 0.000
ROOT
ATOM      1 N1   LIG A   1      19.355  24.499  14.979  1.00 20.00    -0.287 NA
ATOM      2 C2   LIG A   1      18.675  25.126  14.072  1.00 20.00    +0.110 C 
ATOM      3 N3   LIG A   1      17.731  26.021  14.473  1.00 20.00    -0.386 NA
ATOM      4 C4   LIG A   1      18.932  24.888  12.584  1.00 20.00    +0.075 C 
ATOM      5 N5   LIG A   1      19.103  23.470  12.363  1.00 20.00    -0.348 NA
ATOM      6 C6   LIG A   1      19.607  22.988  11.174  1.00 20.00    +0.237 C 
ATOM      7 O7   LIG A   1      20.062  23.716  10.298  1.00 20.00    -0.273 OA
ATOM      8 C8   LIG A   1      19.477  21.462  11.032  1.00 20.00    +0.087 C 
ATOM      9 C9   LIG A   1      20.539  20.830  10.136  1.00 20.00    -0.027 C 
ATOM     10 C10  LIG A   1      21.087  19.659  10.939  1.00 20.00    -0.039 C 
ATOM     11 C11  LIG A   1      20.051  19.431  12.020  1.00 20.00    -0.004 C 
ATOM     12 N12  LIG A   1      19.600  20.787  12.355  1.00 20.00    -0.306 NA
ATOM     13 N13  LIG A   1      22.756  10.180   6.629  1.00 20.00    -0.330 NA
ATOM     14 C14  LIG A   1      22.140  10.835   7.778  1.00 20.00    -0.008 C 
ATOM     15 C15  LIG A   1      21.449  12.135   7.365  1.00 20.00    -0.040 C 
ATOM     16 C16  LIG A   1      20.794  12.818   8.570  1.00 20.00    -0.039 C 
ATOM     17 C17  LIG A   1      20.037  14.095   8.193  1.00 20.00    -0.005 C 
ATOM     18 N18  LIG A   1      20.950  15.113   7.676  1.00 20.00    -0.317 NA
ATOM     19 C19  LIG A   1      20.227  16.319   7.268  1.00 20.00    -0.003 C 
ATOM     20 C20  LIG A   1      21.217  17.357   6.737  1.00 20.00    -0.023 C 
ATOM     21 C21  LIG A   1      20.521  18.581   6.142  1.00 20.00    +0.016 C 
ATOM     22 N22  LIG A   1      19.794  19.361   7.135  1.00 20.00    -0.385 NA
ATOM     23 C23  LIG A   1      20.410  20.180   8.072  1.00 20.00    +0.034 A 
ATOM     24 C24  LIG A   1      21.748  20.576   8.007  1.00 20.00    -0.038 A 
ATOM     25 C25  LIG A   1      22.292  21.471   8.941  1.00 20.00    -0.049 A 
ATOM     26 C26  LIG A   1      21.506  22.023   9.958  1.00 20.00    +0.017 A 
ATOM     27 C27  LIG A   1      22.074  22.971  10.913  1.00 20.00    +0.134 A 
ATOM     28 C28  LIG A   1      23.339  23.475  11.142  1.00 20.00    -0.015 A 
ATOM     29 C29  LIG A   1      23.226  24.392  12.217  1.00 20.00    -0.015 A 
ATOM     30 C30  LIG A   1      21.897  24.405  12.592  1.00 20.00    +0.134 A 
ATOM     31 C31  LIG A   1      21.123  25.129  13.596  1.00 20.00    +0.017 A 
ATOM     32 C32  LIG A   1      21.696  26.177  14.325  1.00 20.00    -0.049 A 
ATOM     33 C33  LIG A   1      20.952  26.888  15.280  1.00 20.00    -0.038 A 
ATOM     34 C34  LIG A   1      19.624  26.561  15.559  1.00 20.00    +0.034 A 
ATOM     35 N35  LIG A   1      18.811  27.274  16.435  1.00 20.00    -0.385 NA
ATOM     36 C36  LIG A   1      19.334  28.228  17.407  1.00 20.00    +0.016 C 
ATOM     37 C37  LIG A   1      19.370  29.642  16.824  1.00 20.00    -0.023 C 
ATOM     38 C38  LIG A   1      17.976  30.237  16.590  1.00 20.00    -0.003 C 
ATOM     39 N39  LIG A   1      17.310  30.524  17.866  1.00 20.00    -0.317 NA
ATOM     40 C40  LIG A   1      15.937  30.999  17.680  1.00 20.00    -0.005 C 
ATOM     41 C41  LIG A   1      14.938  29.899  17.296  1.00 20.00    -0.039 C 
ATOM     42 C42  LIG A   1      14.864  28.775  18.335  1.00 20.00    -0.040 C 
ATOM     43 C43  LIG A   1      13.909  27.644  17.942  1.00 20.00    -0.008 C 
ATOM     44 N44  LIG A   1      12.515  28.068  17.870  1.00 20.00    -0.330 NA
ATOM     45 C45  LIG A   1      19.047  25.531  14.806  1.00 20.00    -0.038 A 
ATOM     46 C46  LIG A   1      19.783  24.818  13.850  1.00 20.00    -0.049 A 
ATOM     47 O47  LIG A   1      21.201  23.533  11.803  1.00 20.00    -0.456 OA
ATOM     48 C48  LIG A   1      20.159  21.652  10.010  1.00 20.00    -0.049 A 
ATOM     49 C49  LIG A   1      19.622  20.754   9.077  1.00 20.00    -0.038 A 
ATOM     50 H50  LIG A   1      20.019  23.868  14.511  1.00 20.00    +0.189 HD
ATOM     51 H51  LIG A   1      17.824  26.259  15.455  1.00 20.00    +0.157 HD
ATOM     52 H52  LIG A   1      17.559  26.820  13.874  1.00 20.00    +0.157 HD
ATOM     53 H53  LIG A   1      18.083  25.235  11.988  1.00 20.00    +0.058 H 
ATOM     54 H54  LIG A   1      19.835  25.426  12.280  1.00 20.00    +0.058 H 
ATOM     55 H55  LIG A   1      18.569  22.811  12.928  1.00 20.00    +0.163 HD
ATOM     56 H56  LIG A   1      18.476  21.263  10.627  1.00 20.00    +0.057 H 
ATOM     57 H57  LIG A   1      20.076  20.465   9.211  1.00 20.00    +0.029 H 
ATOM     58 H58  LIG A   1      21.348  21.513   9.857  1.00 20.00    +0.029 H 
ATOM     59 H59  LIG A   1      22.048  19.937  11.387  1.00 20.00    +0.028 H 
ATOM     60 H60  LIG A   1      21.247  18.772  10.319  1.00 20.00    +0.028 H 
ATOM     61 H61  LIG A   1      19.208  18.840  11.645  1.00 20.00    +0.043 H 
ATOM     62 H62  LIG A   1      20.468  18.919  12.892  1.00 20.00    +0.043 H 
ATOM     63 H63  LIG A   1      20.362  21.245  12.863  1.00 20.00    +0.123 HD
ATOM     64 H64  LIG A   1      22.046  10.003   5.919  1.00 20.00    +0.118 HD
ATOM     65 H65  LIG A   1      23.424  10.818   6.195  1.00 20.00    +0.118 HD
ATOM     66 H66  LIG A   1      22.912  11.037   8.528  1.00 20.00    +0.043 H 
ATOM     67 H67  LIG A   1      21.417  10.148   8.231  1.00 20.00    +0.043 H 
ATOM     68 H68  LIG A   1      20.685  11.923   6.607  1.00 20.00    +0.028 H 
ATOM     69 H69  LIG A   1      22.183  12.808   6.907  1.00 20.00    +0.028 H 
ATOM     70 H70  LIG A   1      20.085  12.121   9.036  1.00 20.00    +0.028 H 
ATOM     71 H71  LIG A   1      21.555  13.047   9.327  1.00 20.00    +0.028 H 
ATOM     72 H72  LIG A   1      19.520  14.474   9.083  1.00 20.00    +0.043 H 
ATOM     73 H73  LIG A   1      19.274  13.850   7.443  1.00 20.00    +0.043 H 
ATOM     74 H74  LIG A   1      21.632  15.354   8.397  1.00 20.00    +0.122 HD
ATOM     75 H75  LIG A   1      19.674  16.733   8.120  1.00 20.00    +0.043 H 
ATOM     76 H76  LIG A   1      19.505  16.069   6.482  1.00 20.00    +0.043 H 
ATOM     77 H77  LIG A   1      21.908  17.653   7.535  1.00 20.00    +0.030 H 
ATOM     78 H78  LIG A   1      21.827  16.900   5.945  1.00 20.00    +0.030 H 
ATOM     79 H79  LIG A   1      21.246  19.209   5.612  1.00 20.00    +0.049 H 
ATOM     80 H80  LIG A   1      19.805  18.255   5.379  1.00 20.00    +0.049 H 
ATOM     81 H81  LIG A   1      18.937  18.930   7.469  1.00 20.00    +0.160 HD
ATOM     82 H82  LIG A   1      22.404  20.203   7.227  1.00 20.00    +0.064 H 
ATOM     83 H83  LIG A   1      23.342  21.738   8.845  1.00 20.00    +0.063 H 
ATOM     84 H84  LIG A   1      24.238  23.219  10.599  1.00 20.00    +0.066 H 
ATOM     85 H85  LIG A   1      24.021  24.976  12.658  1.00 20.00    +0.066 H 
ATOM     86 H86  LIG A   1      22.728  26.473  14.153  1.00 20.00    +0.063 H 
ATOM     87 H87  LIG A   1      21.444  27.709  15.793  1.00 20.00    +0.064 H 
ATOM     88 H88  LIG A   1      18.031  26.726  16.792  1.00 20.00    +0.160 HD
ATOM     89 H89  LIG A   1      18.691  28.207  18.294  1.00 20.00    +0.049 H 
ATOM     90 H90  LIG A   1      20.329  27.933  17.759  1.00 20.00    +0.049 H 
ATOM     91 H91  LIG A   1      19.936  30.294  17.501  1.00 20.00    +0.030 H 
ATOM     92 H92  LIG A   1      19.910  29.644  15.870  1.00 20.00    +0.030 H 
ATOM     93 H93  LIG A   1      18.084  31.169  16.023  1.00 20.00    +0.043 H 
ATOM     94 H94  LIG A   1      17.388  29.548  15.977  1.00 20.00    +0.043 H 
ATOM     95 H95  LIG A   1      17.840  31.248  18.350  1.00 20.00    +0.122 HD
ATOM     96 H96  LIG A   1      15.605  31.443  18.627  1.00 20.00    +0.043 H 
ATOM     97 H97  LIG A   1      15.907  31.807  16.937  1.00 20.00    +0.043 H 
ATOM     98 H98  LIG A   1      15.188  29.479  16.314  1.00 20.00    +0.028 H 
ATOM     99 H99  LIG A   1      13.953  30.369  17.190  1.00 20.00    +0.028 H 
ATOM    100 H100 LIG A   1      14.565  29.190  19.306  1.00 20.00    +0.028 H 
ATOM    101 H101 LIG A   1      15.859  28.335  18.475  1.00 20.00    +0.028 H 
ATOM    102 H102 LIG A   1      14.206  27.218  16.978  1.00 20.00    +0.043 H 
ATOM    103 H103 LIG A   1      13.985  26.842  18.683  1.00 20.00    +0.043 H 
ATOM    104 H104 LIG A   1      12.254  28.532  18.739  1.00 20.00    +0.118 HD
ATOM    105 H105 LIG A   1      12.401  28.761  17.133  1.00 20.00    +0.118 HD
ATOM    106 H106 LIG A   1      18.001  25.272  14.950  1.00 20.00    +0.064 H 
ATOM    107 H107 LIG A   1      19.288  24.023  13.297  1.00 20.00    +0.063 H 
ATOM    108 H108 LIG A   1      19.502  22.068  10.771  1.00 20.00    +0.063 H 
ATOM    109 H109 LIG A   1      18.562  20.518   9.141  1.00 20.00    +0.064 H 
ENDROOT
TORSDOF 0
                                                                                                                
ENDMDL
MODEL 5
REMARK VINA RESULT:   -11.187      6.223     15.957
REMARK INTER + INTRA:         -11.187
REMARK INTER:                 -11.187
REMARK INTRA:                   0.000
REMARK UNBOUND:                 0.000
ROOT
ATOM      1 N1   LIG A   1      17.717  17.523   8.881  1.00 20.00    -0.287 NA
ATOM      2 C2   LIG A   1      18.471  16.634   9.446  1.00 20.00    +0.110 C 
ATOM      3 N3   LIG A   1      17.992  15.365   9.571  1.00 20.00    -0.386 NA
ATOM      4 C4   LIG A   1      19.870  16.985   9.948  1.00 20.00    +0.075 C 
ATOM      5 N5   LIG A   1      19.818  18.268  10.611  1.00 20.00    -0.348 NA
ATOM      6 C6   LIG A   1      20.970  18.956  10.927  1.00 20.00    +0.237 C 
ATOM      7 O7   LIG A   1      22.084  18.602  10.553  1.00 20.00    -0.273 OA
ATOM      8 C8   LIG A   1      20.724  20.165  11.847  1.00 20.00    +0.087 C 
ATOM      9 C9   LIG A   1      21.754  21.280  11.692  1.00 20.00    -0.027 C 
ATOM     10 C10  LIG A   1      20.935  22.555  11.540  1.00 20.00    -0.039 C 
ATOM     11 C11  LIG A   1      19.555  22.171  12.033  1.00 20.00    -0.004 C 
ATOM     12 N12  LIG A   1      19.398  20.787  11.573  1.00 20.00    -0.306 NA
ATOM     13 N13  LIG A   1      23.364  31.440  16.675  1.00 20.00    -0.330 NA
ATOM     14 C14  LIG A   1      22.251  30.546  16.375  1.00 20.00    -0.008 C 
ATOM     15 C15  LIG A   1      22.692  29.083  16.420  1.00 20.00    -0.040 C 
ATOM     16 C16  LIG A   1      21.521  28.143  16.114  1.00 20.00    -0.039 C 
ATOM     17 C17  LIG A   1      21.904  26.663  16.208  1.00 20.00    -0.005 C 
ATOM     18 N18  LIG A   1      22.898  26.314  15.194  1.00 20.00    -0.317 NA
ATOM     19 C19  LIG A   1      23.304  24.911  15.309  1.00 20.00    -0.003 C 
ATOM     20 C20  LIG A   1      24.341  24.587  14.232  1.00 20.00    -0.023 C 
ATOM     21 C21  LIG A   1      24.932  23.186  14.390  1.00 20.00    +0.016 C 
ATOM     22 N22  LIG A   1      23.954  22.128  14.174  1.00 20.00    -0.385 NA
ATOM     23 C23  LIG A   1      23.470  21.771  12.923  1.00 20.00    +0.034 A 
ATOM     24 C24  LIG A   1      24.049  22.170  11.715  1.00 20.00    -0.038 A 
ATOM     25 C25  LIG A   1      23.561  21.711  10.482  1.00 20.00    -0.049 A 
ATOM     26 C26  LIG A   1      22.492  20.811  10.417  1.00 20.00    +0.017 A 
ATOM     27 C27  LIG A   1      22.004  20.320   9.130  1.00 20.00    +0.134 A 
ATOM     28 C28  LIG A   1      22.312  20.587   7.812  1.00 20.00    -0.015 A 
ATOM     29 C29  LIG A   1      21.488  19.748   7.021  1.00 20.00    -0.015 A 
ATOM     30 C30  LIG A   1      20.716  19.009   7.895  1.00 20.00    +0.134 A 
ATOM     31 C31  LIG A   1      19.700  17.972   7.739  1.00 20.00    +0.017 A 
ATOM     32 C32  LIG A   1      19.443  17.401   6.486  1.00 20.00    -0.049 A 
ATOM     33 C33  LIG A   1      18.480  16.392   6.333  1.00 20.00    -0.038 A 
ATOM     34 C34  LIG A   1      17.723  15.938   7.415  1.00 20.00    +0.034 A 
ATOM     35 N35  LIG A   1      16.810  14.890   7.344  1.00 20.00    -0.385 NA
ATOM     36 C36  LIG A   1      16.293  14.369   6.083  1.00 20.00    +0.016 C 
ATOM     37 C37  LIG A   1      17.151  13.209   5.576  1.00 20.00    -0.023 C 
ATOM     38 C38  LIG A   1      17.046  11.951   6.446  1.00 20.00    -0.003 C 
ATOM     39 N39  LIG A   1      15.719  11.337   6.320  1.00 20.00    -0.317 NA
ATOM     40 C40  LIG A   1      15.552  10.190   7.216  1.00 20.00    -0.005 C 
ATOM     41 C41  LIG A   1      15.341  10.569   8.688  1.00 20.00    -0.039 C 
ATOM     42 C42  LIG A   1      14.114  11.462   8.902  1.00 20.00    -0.040 C 
ATOM     43 C43  LIG A   1      13.920  11.891  10.359  1.00 20.00    -0.008 C 
ATOM     44 N44  LIG A   1      13.628  10.775  11.253  1.00 20.00    -0.330 NA
ATOM     45 C45  LIG A   1      18.003  16.492   8.670  1.00 20.00    -0.038 A 
ATOM     46 C46  LIG A   1      18.965  17.498   8.831  1.00 20.00    -0.049 A 
ATOM     47 O47  LIG A   1      21.026  19.366   9.177  1.00 20.00    -0.456 OA
ATOM     48 C48  LIG A   1      21.927  20.386  11.623  1.00 20.00    -0.049 A 
ATOM     49 C49  LIG A   1      22.416  20.851  12.852  1.00 20.00    -0.038 A 
ATOM     50 H50  LIG A   1      18.224  18.418   8.866  1.00 20.00    +0.189 HD
ATOM     51 H51  LIG A   1      17.170  15.209   8.997  1.00 20.00    +0.157 HD
ATOM     52 H52  LIG A   1      18.663  14.607   9.538  1.00 20.00    +0.157 HD
ATOM     53 H53  LIG A   1      20.221  16.235  10.663  1.00 20.00    +0.058 H 
ATOM     54 H54  LIG A   1      20.560  17.030   9.099  1.00 20.00    +0.058 H 
ATOM     55 H55  LIG A   1      18.982  18.524  11.133  1.00 20.00    +0.163 HD
ATOM     56 H56  LIG A   1      20.730  19.788  12.877  1.00 20.00    +0.057 H 
ATOM     57 H57  LIG A   1      22.376  21.341  12.594  1.00 20.00    +0.029 H 
ATOM     58 H58  LIG A   1      22.422  21.152  10.834  1.00 20.00    +0.029 H 
ATOM     59 H59  LIG A   1      20.894  22.843  10.483  1.00 20.00    +0.028 H 
ATOM     60 H60  LIG A   1      21.363  23.390  12.102  1.00 20.00    +0.028 H 
ATOM     61 H61  LIG A   1      19.499  22.210  13.127  1.00 20.00    +0.043 H 
ATOM     62 H62  LIG A   1      18.775  22.821  11.626  1.00 20.00    +0.043 H 
ATOM     63 H63  LIG A   1      19.278  20.815  10.556  1.00 20.00    +0.123 HD
ATOM     64 H64  LIG A   1      23.749  31.206  17.589  1.00 20.00    +0.118 HD
ATOM     65 H65  LIG A   1      24.119  31.274  16.009  1.00 20.00    +0.118 HD
ATOM     66 H66  LIG A   1      21.854  30.792  15.384  1.00 20.00    +0.043 H 
ATOM     67 H67  LIG A   1      21.449  30.722  17.101  1.00 20.00    +0.043 H 
ATOM     68 H68  LIG A   1      23.097  28.849  17.412  1.00 20.00    +0.028 H 
ATOM     69 H69  LIG A   1      23.499  28.924  15.695  1.00 20.00    +0.028 H 
ATOM     70 H70  LIG A   1      20.710  28.336  16.829  1.00 20.00    +0.028 H 
ATOM     71 H71  LIG A   1      21.121  28.361  15.116  1.00 20.00    +0.028 H 
ATOM     72 H72  LIG A   1      21.001  26.056  16.070  1.00 20.00    +0.043 H 
ATOM     73 H73  LIG A   1      22.294  26.458  17.212  1.00 20.00    +0.043 H 
ATOM     74 H74  LIG A   1      22.507  26.479  14.265  1.00 20.00    +0.122 HD
ATOM     75 H75  LIG A   1      22.433  24.256  15.197  1.00 20.00    +0.043 H 
ATOM     76 H76  LIG A   1      23.740  24.733  16.299  1.00 20.00    +0.043 H 
ATOM     77 H77  LIG A   1      23.895  24.709  13.239  1.00 20.00    +0.030 H 
ATOM     78 H78  LIG A   1      25.166  25.309  14.298  1.00 20.00    +0.030 H 
ATOM     79 H79  LIG A   1      25.792  23.060  13.722  1.00 20.00    +0.049 H 
ATOM     80 H80  LIG A   1      25.331  23.074  15.405  1.00 20.00    +0.049 H 
ATOM     81 H81  LIG A   1      23.275  22.018  14.922  1.00 20.00    +0.160 HD
ATOM     82 H82  LIG A   1      24.897  22.847  11.700  1.00 20.00    +0.064 H 
ATOM     83 H83  LIG A   1      24.048  22.061   9.575  1.00 20.00    +0.063 H 
ATOM     84 H84  LIG A   1      23.047  21.296   7.457  1.00 20.00    +0.066 H 
ATOM     85 H85  LIG A   1      21.466  19.690   5.941  1.00 20.00    +0.066 H 
ATOM     86 H86  LIG A   1      20.001  17.718   5.608  1.00 20.00    +0.063 H 
ATOM     87 H87  LIG A   1      18.347  15.969   5.342  1.00 20.00    +0.064 H 
ATOM     88 H88  LIG A   1      16.109  14.920   8.081  1.00 20.00    +0.160 HD
ATOM     89 H89  LIG A   1      15.264  14.029   6.244  1.00 20.00    +0.049 H 
ATOM     90 H90  LIG A   1      16.226  15.157   5.325  1.00 20.00    +0.049 H 
ATOM     91 H91  LIG A   1      16.854  12.967   4.547  1.00 20.00    +0.030 H 
ATOM     92 H92  LIG A   1      18.204  13.509   5.530  1.00 20.00    +0.030 H 
ATOM     93 H93  LIG A   1      17.808  11.234   6.119  1.00 20.00    +0.043 H 
ATOM     94 H94  LIG A   1      17.270  12.212   7.485  1.00 20.00    +0.043 H 
ATOM     95 H95  LIG A   1      15.604  11.016   5.358  1.00 20.00    +0.122 HD
ATOM     96 H96  LIG A   1      14.670   9.630   6.880  1.00 20.00    +0.043 H 
ATOM     97 H97  LIG A   1      16.403   9.503   7.125  1.00 20.00    +0.043 H 
ATOM     98 H98  LIG A   1      16.233  11.065   9.088  1.00 20.00    +0.028 H 
ATOM     99 H99  LIG A   1      15.224   9.639   9.256  1.00 20.00    +0.028 H 
ATOM    100 H100 LIG A   1      13.214  10.944   8.546  1.00 20.00    +0.028 H 
ATOM    101 H101 LIG A   1      14.210  12.373   8.298  1.00 20.00    +0.028 H 
ATOM    102 H102 LIG A   1      14.810  12.418  10.719  1.00 20.00    +0.043 H 
ATOM    103 H103 LIG A   1      13.086  12.599  10.412  1.00 20.00    +0.043 H 
ATOM    104 H104 LIG A   1      12.845  10.237  10.883  1.00 20.00    +0.118 HD
ATOM    105 H105 LIG A   1      14.422  10.138  11.281  1.00 20.00    +0.118 HD
ATOM    106 H106 LIG A   1      17.476  16.136   9.551  1.00 20.00    +0.064 H 
ATOM    107 H107 LIG A   1      19.139  17.898   9.827  1.00 20.00    +0.063 H 
ATOM    108 H108 LIG A   1      21.105  19.673  11.626  1.00 20.00    +0.063 H 
ATOM    109 H109 LIG A   1      21.963  20.470  13.764  1.00 20.00    +0.064 H 
ENDROOT
TORSDOF 0
                                                                                                                
ENDMDL
MODEL 6
REMARK VINA RESULT:   -11.105      3.369     13.886
REMARK INTER + INTRA:         -11.105
REMARK INTER:                 -11.105
REMARK INTRA:                   0.000
REMARK UNBOUND:                 0.000
ROOT
ATOM      1 N1   LIG A   1      17.536  15.861   4.112  1.00 20.00    -0.287 NA
ATOM      2 C2   LIG A   1      16.823  15.265   5.015  1.00 20.00    +0.110 C 
ATOM      3 N3   LIG A   1      15.629  14.725   4.645  1.00 20.00    -0.386 NA
ATOM      4 C4   LIG A   1      17.309  15.149   6.459  1.00 20.00    +0.075 C 
ATOM      5 N5   LIG A   1      17.887  16.412   6.857  1.00 20.00    -0.348 NA
ATOM      6 C6   LIG A   1      18.640  16.522   8.006  1.00 20.00    +0.237 C 
ATOM      7 O7   LIG A   1      18.979  15.553   8.678  1.00 20.00    -0.273 OA
ATOM      8 C8   LIG A   1      18.951  17.978   8.393  1.00 20.00    +0.087 C 
ATOM      9 C9   LIG A   1      20.244  18.145   9.188  1.00 20.00    -0.027 C 
ATOM     10 C10  LIG A   1      20.993  19.272   8.489  1.00 20.00    -0.039 C 
ATOM     11 C11  LIG A   1      19.939  19.949   7.638  1.00 20.00    -0.004 C 
ATOM     12 N12  LIG A   1      19.097  18.836   7.183  1.00 20.00    -0.306 NA
ATOM     13 N13  LIG A   1      25.694  27.055  13.831  1.00 20.00    -0.330 NA
ATOM     14 C14  LIG A   1      24.790  26.802  12.713  1.00 20.00    -0.008 C 
ATOM     15 C15  LIG A   1      23.823  25.662  13.035  1.00 20.00    -0.040 C 
ATOM     16 C16  LIG A   1      22.868  25.402  11.866  1.00 20.00    -0.039 C 
ATOM     17 C17  LIG A   1      21.840  24.308  12.167  1.00 20.00    -0.005 C 
ATOM     18 N18  LIG A   1      22.494  23.016  12.370  1.00 20.00    -0.317 NA
ATOM     19 C19  LIG A   1      21.521  21.974  12.707  1.00 20.00    -0.003 C 
ATOM     20 C20  LIG A   1      22.245  20.641  12.909  1.00 20.00    -0.023 C 
ATOM     21 C21  LIG A   1      21.316  19.540  13.420  1.00 20.00    +0.016 C 
ATOM     22 N22  LIG A   1      20.291  19.167  12.455  1.00 20.00    -0.385 NA
ATOM     23 C23  LIG A   1      20.543  18.410  11.318  1.00 20.00    +0.034 A 
ATOM     24 C24  LIG A   1      21.719  17.687  11.104  1.00 20.00    -0.038 A 
ATOM     25 C25  LIG A   1      21.883  16.876   9.970  1.00 20.00    -0.049 A 
ATOM     26 C26  LIG A   1      20.861  16.738   9.025  1.00 20.00    +0.017 A 
ATOM     27 C27  LIG A   1      21.031  15.873   7.859  1.00 20.00    +0.134 A 
ATOM     28 C28  LIG A   1      22.073  15.122   7.354  1.00 20.00    -0.015 A 
ATOM     29 C29  LIG A   1      21.586  14.479   6.189  1.00 20.00    -0.015 A 
ATOM     30 C30  LIG A   1      20.270  14.869   6.038  1.00 20.00    +0.134 A 
ATOM     31 C31  LIG A   1      19.214  14.562   5.078  1.00 20.00    +0.017 A 
ATOM     32 C32  LIG A   1      19.388  13.559   4.116  1.00 20.00    -0.049 A 
ATOM     33 C33  LIG A   1      18.370  13.248   3.202  1.00 20.00    -0.038 A 
ATOM     34 C34  LIG A   1      17.159  13.943   3.196  1.00 20.00    +0.034 A 
ATOM     35 N35  LIG A   1      16.084  13.632   2.368  1.00 20.00    -0.385 NA
ATOM     36 C36  LIG A   1      16.207  12.776   1.193  1.00 20.00    +0.016 C 
ATOM     37 C37  LIG A   1      15.922  11.315   1.545  1.00 20.00    -0.023 C 
ATOM     38 C38  LIG A   1      14.457  11.054   1.912  1.00 20.00    -0.003 C 
ATOM     39 N39  LIG A   1      13.591  11.186   0.734  1.00 20.00    -0.317 NA
ATOM     40 C40  LIG A   1      12.173  11.043   1.070  1.00 20.00    -0.005 C 
ATOM     41 C41  LIG A   1      11.567  12.265   1.771  1.00 20.00    -0.039 C 
ATOM     42 C42  LIG A   1      11.681  13.547   0.937  1.00 20.00    -0.040 C 
ATOM     43 C43  LIG A   1      11.126  14.786   1.645  1.00 20.00    -0.008 C 
ATOM     44 N44  LIG A   1       9.688  14.717   1.881  1.00 20.00    -0.330 NA
ATOM     45 C45  LIG A   1      16.980  14.925   4.177  1.00 20.00    -0.038 A 
ATOM     46 C46  LIG A   1      17.991  15.239   5.096  1.00 20.00    -0.049 A 
ATOM     47 O47  LIG A   1      19.939  15.724   7.051  1.00 20.00    -0.456 OA
ATOM     48 C48  LIG A   1      19.671  17.436   9.250  1.00 20.00    -0.049 A 
ATOM     49 C49  LIG A   1      19.515  18.249  10.382  1.00 20.00    -0.038 A 
ATOM     50 H50  LIG A   1      18.398  16.207   4.554  1.00 20.00    +0.189 HD
ATOM     51 H51  LIG A   1      15.536  14.660   3.636  1.00 20.00    +0.157 HD
ATOM     52 H52  LIG A   1      15.317  13.897   5.138  1.00 20.00    +0.157 HD
ATOM     53 H53  LIG A   1      16.474  14.920   7.127  1.00 20.00    +0.058 H 
ATOM     54 H54  LIG A   1      18.060  14.356   6.527  1.00 20.00    +0.058 H 
ATOM     55 H55  LIG A   1      17.491  17.277   6.492  1.00 20.00    +0.163 HD
ATOM     56 H56  LIG A   1      18.099  18.341   8.981  1.00 20.00    +0.057 H 
ATOM     57 H57  LIG A   1      20.012  18.436  10.220  1.00 20.00    +0.029 H 
ATOM     58 H58  LIG A   1      20.862  17.242   9.226  1.00 20.00    +0.029 H 
ATOM     59 H59  LIG A   1      21.781  18.851   7.853  1.00 20.00    +0.028 H 
ATOM     60 H60  LIG A   1      21.463  19.959   9.199  1.00 20.00    +0.028 H 
ATOM     61 H61  LIG A   1      19.341  20.651   8.230  1.00 20.00    +0.043 H 
ATOM     62 H62  LIG A   1      20.374  20.495   6.796  1.00 20.00    +0.043 H 
ATOM     63 H63  LIG A   1      19.639  18.305   6.495  1.00 20.00    +0.123 HD
ATOM     64 H64  LIG A   1      25.148  27.268  14.665  1.00 20.00    +0.118 HD
ATOM     65 H65  LIG A   1      26.208  26.201  14.049  1.00 20.00    +0.118 HD
ATOM     66 H66  LIG A   1      25.383  26.557  11.826  1.00 20.00    +0.043 H 
ATOM     67 H67  LIG A   1      24.234  27.720  12.492  1.00 20.00    +0.043 H 
ATOM     68 H68  LIG A   1      23.242  25.912  13.931  1.00 20.00    +0.028 H 
ATOM     69 H69  LIG A   1      24.394  24.754  13.262  1.00 20.00    +0.028 H 
ATOM     70 H70  LIG A   1      22.327  26.328  11.631  1.00 20.00    +0.028 H 
ATOM     71 H71  LIG A   1      23.442  25.136  10.969  1.00 20.00    +0.028 H 
ATOM     72 H72  LIG A   1      21.138  24.242  11.328  1.00 20.00    +0.043 H 
ATOM     73 H73  LIG A   1      21.268  24.590  13.060  1.00 20.00    +0.043 H 
ATOM     74 H74  LIG A   1      22.994  22.751  11.520  1.00 20.00    +0.122 HD
ATOM     75 H75  LIG A   1      20.780  21.877  11.905  1.00 20.00    +0.043 H 
ATOM     76 H76  LIG A   1      20.994  22.245  13.629  1.00 20.00    +0.043 H 
ATOM     77 H77  LIG A   1      22.729  20.336  11.974  1.00 20.00    +0.030 H 
ATOM     78 H78  LIG A   1      23.046  20.775  13.648  1.00 20.00    +0.030 H 
ATOM     79 H79  LIG A   1      21.898  18.664  13.725  1.00 20.00    +0.049 H 
ATOM     80 H80  LIG A   1      20.811  19.887  14.330  1.00 20.00    +0.049 H 
ATOM     81 H81  LIG A   1      19.551  19.853  12.334  1.00 20.00    +0.160 HD
ATOM     82 H82  LIG A   1      22.540  17.732  11.813  1.00 20.00    +0.064 H 
ATOM     83 H83  LIG A   1      22.824  16.342   9.853  1.00 20.00    +0.063 H 
ATOM     84 H84  LIG A   1      23.065  15.039   7.775  1.00 20.00    +0.066 H 
ATOM     85 H85  LIG A   1      22.133  13.809   5.541  1.00 20.00    +0.066 H 
ATOM     86 H86  LIG A   1      20.312  12.989   4.072  1.00 20.00    +0.063 H 
ATOM     87 H87  LIG A   1      18.554  12.441   2.499  1.00 20.00    +0.064 H 
ATOM     88 H88  LIG A   1      15.448  14.414   2.229  1.00 20.00    +0.160 HD
ATOM     89 H89  LIG A   1      15.494  13.123   0.436  1.00 20.00    +0.049 H 
ATOM     90 H90  LIG A   1      17.196  12.875   0.731  1.00 20.00    +0.049 H 
ATOM     91 H91  LIG A   1      16.204  10.681   0.695  1.00 20.00    +0.030 H 
ATOM     92 H92  LIG A   1      16.550  11.000   2.386  1.00 20.00    +0.030 H 
ATOM     93 H93  LIG A   1      14.371  10.036   2.309  1.00 20.00    +0.043 H 
ATOM     94 H94  LIG A   1      14.157  11.741   2.709  1.00 20.00    +0.043 H 
ATOM     95 H95  LIG A   1      13.842  10.456   0.067  1.00 20.00    +0.122 HD
ATOM     96 H96  LIG A   1      11.622  10.881   0.134  1.00 20.00    +0.043 H 
ATOM     97 H97  LIG A   1      12.011  10.144   1.678  1.00 20.00    +0.043 H 
ATOM     98 H98  LIG A   1      12.036  12.419   2.750  1.00 20.00    +0.028 H 
ATOM     99 H99  LIG A   1      10.510  12.045   1.966  1.00 20.00    +0.028 H 
ATOM    100 H100 LIG A   1      11.167  13.408  -0.023  1.00 20.00    +0.028 H 
ATOM    101 H101 LIG A   1      12.734  13.742   0.703  1.00 20.00    +0.028 H 
ATOM    102 H102 LIG A   1      11.640  14.936   2.600  1.00 20.00    +0.043 H 
ATOM    103 H103 LIG A   1      11.331  15.667   1.029  1.00 20.00    +0.043 H 
ATOM    104 H104 LIG A   1       9.208  14.504   1.006  1.00 20.00    +0.118 HD
ATOM    105 H105 LIG A   1       9.476  13.950   2.514  1.00 20.00    +0.118 HD
ATOM    106 H106 LIG A   1      16.035  15.459   4.246  1.00 20.00    +0.064 H 
ATOM    107 H107 LIG A   1      17.801  16.015   5.834  1.00 20.00    +0.063 H 
ATOM    108 H108 LIG A   1      18.840  17.348   8.553  1.00 20.00    +0.063 H 
ATOM    109 H109 LIG A   1      18.561  18.750  10.528  1.00 20.00    +0.064 H 
ENDROOT
TORSDOF 0
                                                                                                                
ENDMDL
MODEL 7
REMARK VINA RESULT:   -10.881      5.311     15.136
REMARK INTER + INTRA:         -10.881
REMARK INTER:                 -10.881
REMARK INTRA:                   0.000
REMARK UNBOUND:                 0.000
ROOT
ATOM      1 N1   LIG A   1      19.457  18.154   5.990  1.00 20.00    -0.287 NA
ATOM      2 C2   LIG A   1      18.769  17.530   6.894  1.00 20.00    +0.110 C 
ATOM      3 N3   LIG A   1      17.848  16.614   6.488  1.00 20.00    -0.386 NA
ATOM      4 C4   LIG A   1      18.993  17.795   8.382  1.00 20.00    +0.075 C 
ATOM      5 N5   LIG A   1      19.138  19.219   8.584  1.00 20.00    -0.348 NA
ATOM      6 C6   LIG A   1      19.610  19.726   9.775  1.00 20.00    +0.237 C 
ATOM      7 O7   LIG A   1      20.059  19.020  10.672  1.00 20.00    -0.273 OA
ATOM      8 C8   LIG A   1      19.453  21.253   9.891  1.00 20.00    +0.087 C 
ATOM      9 C9   LIG A   1      20.487  21.914  10.798  1.00 20.00    -0.027 C 
ATOM     10 C10  LIG A   1      21.033  23.082   9.988  1.00 20.00    -0.039 C 
ATOM     11 C11  LIG A   1      20.015  23.277   8.883  1.00 20.00    -0.004 C 
ATOM     12 N12  LIG A   1      19.592  21.909   8.560  1.00 20.00    -0.306 NA
ATOM     13 N13  LIG A   1      22.469  32.650  14.182  1.00 20.00    -0.330 NA
ATOM     14 C14  LIG A   1      21.886  31.969  13.031  1.00 20.00    -0.008 C 
ATOM     15 C15  LIG A   1      21.207  30.665  13.450  1.00 20.00    -0.040 C 
ATOM     16 C16  LIG A   1      20.587  29.953  12.244  1.00 20.00    -0.039 C 
ATOM     17 C17  LIG A   1      19.842  28.670  12.625  1.00 20.00    -0.005 C 
ATOM     18 N18  LIG A   1      20.761  27.675  13.176  1.00 20.00    -0.317 NA
ATOM     19 C19  LIG A   1      20.048  26.463  13.588  1.00 20.00    -0.003 C 
ATOM     20 C20  LIG A   1      21.044  25.450  14.155  1.00 20.00    -0.023 C 
ATOM     21 C21  LIG A   1      20.356  24.224  14.755  1.00 20.00    +0.016 C 
ATOM     22 N22  LIG A   1      19.660  23.418  13.760  1.00 20.00    -0.385 NA
ATOM     23 C23  LIG A   1      20.307  22.594  12.849  1.00 20.00    +0.034 A 
ATOM     24 C24  LIG A   1      21.650  22.220  12.946  1.00 20.00    -0.038 A 
ATOM     25 C25  LIG A   1      22.227  21.320  12.037  1.00 20.00    -0.049 A 
ATOM     26 C26  LIG A   1      21.469  20.740  11.013  1.00 20.00    +0.017 A 
ATOM     27 C27  LIG A   1      22.071  19.786  10.084  1.00 20.00    +0.134 A 
ATOM     28 C28  LIG A   1      23.348  19.300   9.888  1.00 20.00    -0.015 A 
ATOM     29 C29  LIG A   1      23.270  18.364   8.826  1.00 20.00    -0.015 A 
ATOM     30 C30  LIG A   1      21.949  18.325   8.425  1.00 20.00    +0.134 A 
ATOM     31 C31  LIG A   1      21.207  17.573   7.417  1.00 20.00    +0.017 A 
ATOM     32 C32  LIG A   1      21.811  16.523   6.716  1.00 20.00    -0.049 A 
ATOM     33 C33  LIG A   1      21.097  15.786   5.758  1.00 20.00    -0.038 A 
ATOM     34 C34  LIG A   1      19.769  16.088   5.448  1.00 20.00    +0.034 A 
ATOM     35 N35  LIG A   1      18.985  15.349   4.568  1.00 20.00    -0.385 NA
ATOM     36 C36  LIG A   1      19.543  14.388   3.621  1.00 20.00    +0.016 C 
ATOM     37 C37  LIG A   1      19.588  12.984   4.227  1.00 20.00    -0.023 C 
ATOM     38 C38  LIG A   1      18.200  12.371   4.442  1.00 20.00    -0.003 C 
ATOM     39 N39  LIG A   1      17.563  12.054   3.158  1.00 20.00    -0.317 NA
ATOM     40 C40  LIG A   1      16.194  11.560   3.325  1.00 20.00    -0.005 C 
ATOM     41 C41  LIG A   1      15.172  12.649   3.672  1.00 20.00    -0.039 C 
ATOM     42 C42  LIG A   1      15.100  13.757   2.613  1.00 20.00    -0.040 C 
ATOM     43 C43  LIG A   1      14.121  14.878   2.971  1.00 20.00    -0.008 C 
ATOM     44 N44  LIG A   1      12.732  14.433   3.022  1.00 20.00    -0.330 NA
ATOM     45 C45  LIG A   1      19.162  17.120   6.173  1.00 20.00    -0.038 A 
ATOM     46 C46  LIG A   1      19.868  17.858   7.133  1.00 20.00    -0.049 A 
ATOM     47 O47  LIG A   1      21.225  19.198   9.186  1.00 20.00    -0.456 OA
ATOM     48 C48  LIG A   1      20.118  21.089  10.929  1.00 20.00    -0.049 A 
ATOM     49 C49  LIG A   1      19.549  21.992  11.837  1.00 20.00    -0.038 A 
ATOM     50 H50  LIG A   1      20.102  18.803   6.461  1.00 20.00    +0.189 HD
ATOM     51 H51  LIG A   1      17.964  16.363   5.511  1.00 20.00    +0.157 HD
ATOM     52 H52  LIG A   1      17.676  15.822   7.096  1.00 20.00    +0.157 HD
ATOM     53 H53  LIG A   1      18.137  17.444   8.967  1.00 20.00    +0.058 H 
ATOM     54 H54  LIG A   1      19.898  17.276   8.712  1.00 20.00    +0.058 H 
ATOM     55 H55  LIG A   1      18.605  19.860   7.999  1.00 20.00    +0.163 HD
ATOM     56 H56  LIG A   1      18.442  21.442  10.273  1.00 20.00    +0.057 H 
ATOM     57 H57  LIG A   1      20.000  22.287  11.708  1.00 20.00    +0.029 H 
ATOM     58 H58  LIG A   1      21.301  21.248  11.104  1.00 20.00    +0.029 H 
ATOM     59 H59  LIG A   1      22.007  22.812   9.563  1.00 20.00    +0.028 H 
ATOM     60 H60  LIG A   1      21.167  23.981  10.596  1.00 20.00    +0.028 H 
ATOM     61 H61  LIG A   1      19.157  23.861   9.232  1.00 20.00    +0.043 H 
ATOM     62 H62  LIG A   1      20.442  23.782   8.011  1.00 20.00    +0.043 H 
ATOM     63 H63  LIG A   1      20.372  21.455   8.075  1.00 20.00    +0.123 HD
ATOM     64 H64  LIG A   1      21.743  32.827  14.874  1.00 20.00    +0.118 HD
ATOM     65 H65  LIG A   1      23.139  32.030  14.638  1.00 20.00    +0.118 HD
ATOM     66 H66  LIG A   1      22.676  31.767  12.300  1.00 20.00    +0.043 H 
ATOM     67 H67  LIG A   1      21.161  32.637  12.553  1.00 20.00    +0.043 H 
ATOM     68 H68  LIG A   1      20.426  30.875  14.190  1.00 20.00    +0.028 H 
ATOM     69 H69  LIG A   1      21.943  30.010  13.933  1.00 20.00    +0.028 H 
ATOM     70 H70  LIG A   1      19.877  30.631  11.752  1.00 20.00    +0.028 H 
ATOM     71 H71  LIG A   1      21.366  29.724  11.506  1.00 20.00    +0.028 H 
ATOM     72 H72  LIG A   1      19.349  28.269  11.732  1.00 20.00    +0.043 H 
ATOM     73 H73  LIG A   1      19.062  28.914  13.357  1.00 20.00    +0.043 H 
ATOM     74 H74  LIG A   1      21.461  27.434  12.472  1.00 20.00    +0.122 HD
ATOM     75 H75  LIG A   1      19.520  26.028  12.733  1.00 20.00    +0.043 H 
ATOM     76 H76  LIG A   1      19.308  26.714  14.356  1.00 20.00    +0.043 H 
ATOM     77 H77  LIG A   1      21.755  25.152  13.376  1.00 20.00    +0.030 H 
ATOM     78 H78  LIG A   1      21.631  25.928  14.951  1.00 20.00    +0.030 H 
ATOM     79 H79  LIG A   1      21.079  23.615  15.309  1.00 20.00    +0.049 H 
ATOM     80 H80  LIG A   1      19.619  24.550  15.498  1.00 20.00    +0.049 H 
ATOM     81 H81  LIG A   1      18.803  23.830  13.403  1.00 20.00    +0.160 HD
ATOM     82 H82  LIG A   1      22.284  22.615  13.733  1.00 20.00    +0.064 H 
ATOM     83 H83  LIG A   1      23.278  21.071  12.158  1.00 20.00    +0.063 H 
ATOM     84 H84  LIG A   1      24.231  19.577  10.445  1.00 20.00    +0.066 H 
ATOM     85 H85  LIG A   1      24.083  17.786   8.409  1.00 20.00    +0.066 H 
ATOM     86 H86  LIG A   1      22.844  16.246   6.913  1.00 20.00    +0.063 H 
ATOM     87 H87  LIG A   1      21.612  14.965   5.268  1.00 20.00    +0.064 H 
ATOM     88 H88  LIG A   1      18.205  15.878   4.187  1.00 20.00    +0.160 HD
ATOM     89 H89  LIG A   1      18.917  14.386   2.721  1.00 20.00    +0.049 H 
ATOM     90 H90  LIG A   1      20.539  14.694   3.284  1.00 20.00    +0.049 H 
ATOM     91 H91  LIG A   1      20.178  12.331   3.571  1.00 20.00    +0.030 H 
ATOM     92 H92  LIG A   1      20.109  13.005   5.191  1.00 20.00    +0.030 H 
ATOM     93 H93  LIG A   1      18.311  11.450   5.026  1.00 20.00    +0.043 H 
ATOM     94 H94  LIG A   1      17.589  13.060   5.033  1.00 20.00    +0.043 H 
ATOM     95 H95  LIG A   1      18.115  11.331   2.696  1.00 20.00    +0.122 HD
ATOM     96 H96  LIG A   1      15.889  11.096   2.378  1.00 20.00    +0.043 H 
ATOM     97 H97  LIG A   1      16.163  10.763   4.079  1.00 20.00    +0.043 H 
ATOM     98 H98  LIG A   1      15.396  13.089   4.651  1.00 20.00    +0.028 H 
ATOM     99 H99  LIG A   1      14.192  12.166   3.766  1.00 20.00    +0.028 H 
ATOM    100 H100 LIG A   1      14.828  13.322   1.643  1.00 20.00    +0.028 H 
ATOM    101 H101 LIG A   1      16.091  14.210   2.486  1.00 20.00    +0.028 H 
ATOM    102 H102 LIG A   1      14.392  15.323   3.933  1.00 20.00    +0.043 H 
ATOM    103 H103 LIG A   1      14.199  15.670   2.219  1.00 20.00    +0.043 H 
ATOM    104 H104 LIG A   1      12.496  13.952   2.155  1.00 20.00    +0.118 HD
ATOM    105 H105 LIG A   1      12.614  13.750   3.767  1.00 20.00    +0.118 HD
ATOM    106 H106 LIG A   1      18.115  17.360   6.004  1.00 20.00    +0.064 H 
ATOM    107 H107 LIG A   1      19.349  18.654   7.663  1.00 20.00    +0.063 H 
ATOM    108 H108 LIG A   1      19.483  20.651  10.162  1.00 20.00    +0.063 H 
ATOM    109 H109 LIG A   1      18.487  22.211  11.749  1.00 20.00    +0.064 H 
ENDROOT
TORSDOF 0
                                                                                                                
ENDMDL
MODEL 8
REMARK VINA RESULT:   -10.619      2.695     13.275
REMARK INTER + INTRA:         -10.619
REMARK INTER:                 -10.619
REMARK INTRA:                   0.000
REMARK UNBOUND:                 0.000
ROOT
ATOM      1 N1   LIG A   1      15.548  15.002   3.052  1.00 20.00    -0.287 NA
ATOM      2 C2   LIG A   1      14.791  14.579   4.014  1.00 20.00    +0.110 C 
ATOM      3 N3   LIG A   1      13.483  14.318   3.741  1.00 20.00    -0.386 NA
ATOM      4 C4   LIG A   1      15.345  14.357   5.420  1.00 20.00    +0.075 C 
ATOM      5 N5   LIG A   1      16.218  15.459   5.755  1.00 20.00    -0.348 NA
ATOM      6 C6   LIG A   1      17.061  15.398   6.844  1.00 20.00    +0.237 C 
ATOM      7 O7   LIG A   1      17.225  14.378   7.504  1.00 20.00    -0.273 OA
ATOM      8 C8   LIG A   1      17.715  16.749   7.184  1.00 20.00    +0.087 C 
ATOM      9 C9   LIG A   1      19.068  16.623   7.879  1.00 20.00    -0.027 C 
ATOM     10 C10  LIG A   1      19.994  17.555   7.110  1.00 20.00    -0.039 C 
ATOM     11 C11  LIG A   1      19.056  18.451   6.327  1.00 20.00    -0.004 C 
ATOM     12 N12  LIG A   1      17.956  17.553   5.953  1.00 20.00    -0.306 NA
ATOM     13 N13  LIG A   1      26.690  24.094  11.968  1.00 20.00    -0.330 NA
ATOM     14 C14  LIG A   1      25.672  24.049  10.924  1.00 20.00    -0.008 C 
ATOM     15 C15  LIG A   1      24.504  23.153  11.334  1.00 20.00    -0.040 C 
ATOM     16 C16  LIG A   1      23.430  23.112  10.242  1.00 20.00    -0.039 C 
ATOM     17 C17  LIG A   1      22.210  22.274  10.635  1.00 20.00    -0.005 C 
ATOM     18 N18  LIG A   1      22.574  20.869  10.810  1.00 20.00    -0.317 NA
ATOM     19 C19  LIG A   1      21.423  20.069  11.234  1.00 20.00    -0.003 C 
ATOM     20 C20  LIG A   1      21.846  18.609  11.403  1.00 20.00    -0.023 C 
ATOM     21 C21  LIG A   1      20.737  17.742  11.999  1.00 20.00    +0.016 C 
ATOM     22 N22  LIG A   1      19.585  17.606  11.117  1.00 20.00    -0.385 NA
ATOM     23 C23  LIG A   1      19.577  16.813   9.977  1.00 20.00    +0.034 A 
ATOM     24 C24  LIG A   1      20.544  15.847   9.689  1.00 20.00    -0.038 A 
ATOM     25 C25  LIG A   1      20.439  15.020   8.560  1.00 20.00    -0.049 A 
ATOM     26 C26  LIG A   1      19.344  15.113   7.694  1.00 20.00    +0.017 A 
ATOM     27 C27  LIG A   1      19.230  14.234   6.533  1.00 20.00    +0.134 A 
ATOM     28 C28  LIG A   1      20.038  13.271   5.965  1.00 20.00    -0.015 A 
ATOM     29 C29  LIG A   1      19.336  12.753   4.848  1.00 20.00    -0.015 A 
ATOM     30 C30  LIG A   1      18.131  13.426   4.788  1.00 20.00    +0.134 A 
ATOM     31 C31  LIG A   1      16.965  13.362   3.913  1.00 20.00    +0.017 A 
ATOM     32 C32  LIG A   1      16.839  12.346   2.957  1.00 20.00    -0.049 A 
ATOM     33 C33  LIG A   1      15.712  12.270   2.125  1.00 20.00    -0.038 A 
ATOM     34 C34  LIG A   1      14.688  13.216   2.196  1.00 20.00    +0.034 A 
ATOM     35 N35  LIG A   1      13.512  13.154   1.455  1.00 20.00    -0.385 NA
ATOM     36 C36  LIG A   1      13.354  12.292   0.287  1.00 20.00    +0.016 C 
ATOM     37 C37  LIG A   1      12.779  10.931   0.682  1.00 20.00    -0.023 C 
ATOM     38 C38  LIG A   1      11.324  11.003   1.159  1.00 20.00    -0.003 C 
ATOM     39 N39  LIG A   1      10.424  11.325   0.046  1.00 20.00    -0.317 NA
ATOM     40 C40  LIG A   1       9.038  11.500   0.487  1.00 20.00    -0.005 C 
ATOM     41 C41  LIG A   1       8.772  12.826   1.212  1.00 20.00    -0.039 C 
ATOM     42 C42  LIG A   1       9.105  14.051   0.351  1.00 20.00    -0.040 C 
ATOM     43 C43  LIG A   1       8.894  15.381   1.078  1.00 20.00    -0.008 C 
ATOM     44 N44  LIG A   1       7.498  15.635   1.419  1.00 20.00    -0.330 NA
ATOM     45 C45  LIG A   1      14.805  14.213   3.172  1.00 20.00    -0.038 A 
ATOM     46 C46  LIG A   1      15.926  14.294   4.009  1.00 20.00    -0.049 A 
ATOM     47 O47  LIG A   1      18.074  14.332   5.809  1.00 20.00    -0.456 OA
ATOM     48 C48  LIG A   1      18.358  16.059   7.994  1.00 20.00    -0.049 A 
ATOM     49 C49  LIG A   1      18.472  16.885   9.121  1.00 20.00    -0.038 A 
ATOM     50 H50  LIG A   1      16.497  15.148   3.424  1.00 20.00    +0.189 HD
ATOM     51 H51  LIG A   1      13.303  14.276   2.742  1.00 20.00    +0.157 HD
ATOM     52 H52  LIG A   1      13.032  13.580   4.268  1.00 20.00    +0.157 HD
ATOM     53 H53  LIG A   1      14.533  14.319   6.151  1.00 20.00    +0.058 H 
ATOM     54 H54  LIG A   1      15.905  13.417   5.446  1.00 20.00    +0.058 H 
ATOM     55 H55  LIG A   1      15.997  16.391   5.406  1.00 20.00    +0.163 HD
ATOM     56 H56  LIG A   1      17.010  17.291   7.827  1.00 20.00    +0.057 H 
ATOM     57 H57  LIG A   1      18.984  16.957   8.921  1.00 20.00    +0.029 H 
ATOM     58 H58  LIG A   1      19.471  15.605   7.886  1.00 20.00    +0.029 H 
ATOM     59 H59  LIG A   1      20.619  16.970   6.425  1.00 20.00    +0.028 H 
ATOM     60 H60  LIG A   1      20.656  18.120   7.772  1.00 20.00    +0.028 H 
ATOM     61 H61  LIG A   1      18.675  19.268   6.950  1.00 20.00    +0.043 H 
ATOM     62 H62  LIG A   1      19.537  18.887   5.447  1.00 20.00    +0.043 H 
ATOM     63 H63  LIG A   1      18.314  16.915   5.236  1.00 20.00    +0.123 HD
ATOM     64 H64  LIG A   1      26.270  24.422  12.837  1.00 20.00    +0.118 HD
ATOM     65 H65  LIG A   1      27.017  23.147  12.162  1.00 20.00    +0.118 HD
ATOM     66 H66  LIG A   1      26.128  23.679  10.000  1.00 20.00    +0.043 H 
ATOM     67 H67  LIG A   1      25.319  25.068  10.730  1.00 20.00    +0.043 H 
ATOM     68 H68  LIG A   1      24.061  23.525  12.266  1.00 20.00    +0.028 H 
ATOM     69 H69  LIG A   1      24.874  22.140  11.533  1.00 20.00    +0.028 H 
ATOM     70 H70  LIG A   1      23.092  24.136  10.033  1.00 20.00    +0.028 H 
ATOM     71 H71  LIG A   1      23.862  22.726   9.310  1.00 20.00    +0.028 H 
ATOM     72 H72  LIG A   1      21.450  22.367   9.850  1.00 20.00    +0.043 H 
ATOM     73 H73  LIG A   1      21.784  22.675  11.563  1.00 20.00    +0.043 H 
ATOM     74 H74  LIG A   1      22.938  20.500   9.930  1.00 20.00    +0.122 HD
ATOM     75 H75  LIG A   1      20.621  20.140  10.490  1.00 20.00    +0.043 H 
ATOM     76 H76  LIG A   1      21.040  20.450  12.187  1.00 20.00    +0.043 H 
ATOM     77 H77  LIG A   1      22.178  18.205  10.440  1.00 20.00    +0.030 H 
ATOM     78 H78  LIG A   1      22.710  18.560  12.080  1.00 20.00    +0.030 H 
ATOM     79 H79  LIG A   1      21.131  16.757  12.274  1.00 20.00    +0.049 H 
ATOM     80 H80  LIG A   1      20.391  18.191  12.937  1.00 20.00    +0.049 H 
ATOM     81 H81  LIG A   1      19.009  18.439  11.040  1.00 20.00    +0.160 HD
ATOM     82 H82  LIG A   1      21.405  15.708  10.335  1.00 20.00    +0.064 H 
ATOM     83 H83  LIG A   1      21.226  14.291   8.382  1.00 20.00    +0.063 H 
ATOM     84 H84  LIG A   1      21.016  12.968   6.313  1.00 20.00    +0.066 H 
ATOM     85 H85  LIG A   1      19.670  11.978   4.173  1.00 20.00    +0.066 H 
ATOM     86 H86  LIG A   1      17.608  11.584   2.854  1.00 20.00    +0.063 H 
ATOM     87 H87  LIG A   1      15.659  11.443   1.423  1.00 20.00    +0.064 H 
ATOM     88 H88  LIG A   1      13.057  14.057   1.350  1.00 20.00    +0.160 HD
ATOM     89 H89  LIG A   1      12.681  12.790  -0.421  1.00 20.00    +0.049 H 
ATOM     90 H90  LIG A   1      14.302  12.169  -0.248  1.00 20.00    +0.049 H 
ATOM     91 H91  LIG A   1      12.849  10.251  -0.176  1.00 20.00    +0.030 H 
ATOM     92 H92  LIG A   1      13.383  10.484   1.480  1.00 20.00    +0.030 H 
ATOM     93 H93  LIG A   1      11.045  10.028   1.578  1.00 20.00    +0.043 H 
ATOM     94 H94  LIG A   1      11.245  11.738   1.965  1.00 20.00    +0.043 H 
ATOM     95 H95  LIG A   1      10.456  10.558  -0.625  1.00 20.00    +0.122 HD
ATOM     96 H96  LIG A   1       8.397  11.465  -0.403  1.00 20.00    +0.043 H 
ATOM     97 H97  LIG A   1       8.727  10.659   1.120  1.00 20.00    +0.043 H 
ATOM     98 H98  LIG A   1       9.336  12.870   2.151  1.00 20.00    +0.028 H 
ATOM     99 H99  LIG A   1       7.711  12.846   1.487  1.00 20.00    +0.028 H 
ATOM    100 H100 LIG A   1       8.503  14.030  -0.567  1.00 20.00    +0.028 H 
ATOM    101 H101 LIG A   1      10.155  14.007   0.038  1.00 20.00    +0.028 H 
ATOM    102 H102 LIG A   1       9.499  15.413   1.990  1.00 20.00    +0.043 H 
ATOM    103 H103 LIG A   1       9.242  16.196   0.435  1.00 20.00    +0.043 H 
ATOM    104 H104 LIG A   1       6.919  15.534   0.586  1.00 20.00    +0.118 HD
ATOM    105 H105 LIG A   1       7.169  14.932   2.079  1.00 20.00    +0.118 HD
ATOM    106 H106 LIG A   1      14.010  14.944   3.302  1.00 20.00    +0.064 H 
ATOM    107 H107 LIG A   1      15.969  15.092   4.747  1.00 20.00    +0.063 H 
ATOM    108 H108 LIG A   1      17.479  16.158   7.362  1.00 20.00    +0.063 H 
ATOM    109 H109 LIG A   1      17.666  17.586   9.329  1.00 20.00    +0.064 H 
ENDROOT
TORSDOF 0
                                                                                                                
ENDMDL
MODEL 9
REMARK VINA RESULT:   -10.387      6.110     16.071
REMARK INTER + INTRA:         -10.387
REMARK INTER:                 -10.387
REMARK INTRA:                   0.000
REMARK UNBOUND:                 0.000
ROOT
ATOM      1 N1   LIG A   1      19.769  19.457   6.733  1.00 20.00    -0.287 NA
ATOM      2 C2   LIG A   1      19.728  18.493   7.598  1.00 20.00    +0.110 C 
ATOM      3 N3   LIG A   1      19.036  17.365   7.278  1.00 20.00    -0.386 NA
ATOM      4 C4   LIG A   1      20.450  18.602   8.940  1.00 20.00    +0.075 C 
ATOM      5 N5   LIG A   1      20.237  19.928   9.475  1.00 20.00    -0.348 NA
ATOM      6 C6   LIG A   1      20.981  20.397  10.537  1.00 20.00    +0.237 C 
ATOM      7 O7   LIG A   1      21.943  19.792  10.998  1.00 20.00    -0.273 OA
ATOM      8 C8   LIG A   1      20.443  21.715  11.122  1.00 20.00    +0.087 C 
ATOM      9 C9   LIG A   1      21.511  22.580  11.786  1.00 20.00    -0.027 C 
ATOM     10 C10  LIG A   1      21.308  23.972  11.204  1.00 20.00    -0.039 C 
ATOM     11 C11  LIG A   1      19.920  23.924  10.598  1.00 20.00    -0.004 C 
ATOM     12 N12  LIG A   1      19.826  22.561  10.062  1.00 20.00    -0.306 NA
ATOM     13 N13  LIG A   1      21.436  32.643  17.205  1.00 20.00    -0.330 NA
ATOM     14 C14  LIG A   1      20.664  31.967  16.168  1.00 20.00    -0.008 C 
ATOM     15 C15  LIG A   1      20.633  30.456  16.402  1.00 20.00    -0.040 C 
ATOM     16 C16  LIG A   1      19.815  29.746  15.319  1.00 20.00    -0.039 C 
ATOM     17 C17  LIG A   1      19.706  28.236  15.547  1.00 20.00    -0.005 C 
ATOM     18 N18  LIG A   1      21.018  27.596  15.460  1.00 20.00    -0.317 NA
ATOM     19 C19  LIG A   1      20.928  26.158  15.726  1.00 20.00    -0.003 C 
ATOM     20 C20  LIG A   1      22.318  25.529  15.623  1.00 20.00    -0.023 C 
ATOM     21 C21  LIG A   1      22.330  24.060  16.046  1.00 20.00    +0.016 C 
ATOM     22 N22  LIG A   1      21.561  23.205  15.151  1.00 20.00    -0.385 NA
ATOM     23 C23  LIG A   1      21.991  22.832  13.884  1.00 20.00    +0.034 A 
ATOM     24 C24  LIG A   1      23.302  22.987  13.425  1.00 20.00    -0.038 A 
ATOM     25 C25  LIG A   1      23.695  22.518  12.162  1.00 20.00    -0.049 A 
ATOM     26 C26  LIG A   1      22.794  21.850  11.326  1.00 20.00    +0.017 A 
ATOM     27 C27  LIG A   1      23.216  21.344  10.021  1.00 20.00    +0.134 A 
ATOM     28 C28  LIG A   1      24.383  21.414   9.287  1.00 20.00    -0.015 A 
ATOM     29 C29  LIG A   1      24.159  20.686   8.093  1.00 20.00    -0.015 A 
ATOM     30 C30  LIG A   1      22.866  20.206   8.155  1.00 20.00    +0.134 A 
ATOM     31 C31  LIG A   1      22.035  19.384   7.279  1.00 20.00    +0.017 A 
ATOM     32 C32  LIG A   1      22.580  18.757   6.153  1.00 20.00    -0.049 A 
ATOM     33 C33  LIG A   1      21.791  17.952   5.317  1.00 20.00    -0.038 A 
ATOM     34 C34  LIG A   1      20.428  17.768   5.560  1.00 20.00    +0.034 A 
ATOM     35 N35  LIG A   1      19.609  16.924   4.816  1.00 20.00    -0.385 NA
ATOM     36 C36  LIG A   1      19.988  16.397   3.509  1.00 20.00    +0.016 C 
ATOM     37 C37  LIG A   1      20.689  15.044   3.645  1.00 20.00    -0.023 C 
ATOM     38 C38  LIG A   1      19.758  13.924   4.123  1.00 20.00    -0.003 C 
ATOM     39 N39  LIG A   1      18.778  13.580   3.086  1.00 20.00    -0.317 NA
ATOM     40 C40  LIG A   1      17.809  12.583   3.548  1.00 20.00    -0.005 C 
ATOM     41 C41  LIG A   1      16.745  13.138   4.505  1.00 20.00    -0.039 C 
ATOM     42 C42  LIG A   1      15.925  14.276   3.886  1.00 20.00    -0.040 C 
ATOM     43 C43  LIG A   1      14.894  14.875   4.846  1.00 20.00    -0.008 C 
ATOM     44 N44  LIG A   1      13.846  13.933   5.224  1.00 20.00    -0.330 NA
ATOM     45 C45  LIG A   1      19.894  18.373   6.704  1.00 20.00    -0.038 A 
ATOM     46 C46  LIG A   1      20.677  19.176   7.544  1.00 20.00    -0.049 A 
ATOM     47 O47  LIG A   1      22.293  20.616   9.325  1.00 20.00    -0.456 OA
ATOM     48 C48  LIG A   1      21.489  21.666  11.793  1.00 20.00    -0.049 A 
ATOM     49 C49  LIG A   1      21.101  22.141  13.053  1.00 20.00    -0.038 A 
ATOM     50 H50  LIG A   1      20.327  20.226   7.128  1.00 20.00    +0.189 HD
ATOM     51 H51  LIG A   1      18.812  17.323   6.289  1.00 20.00    +0.157 HD
ATOM     52 H52  LIG A   1      19.369  16.487   7.659  1.00 20.00    +0.157 HD
ATOM     53 H53  LIG A   1      20.052  17.870   9.650  1.00 20.00    +0.058 H 
ATOM     54 H54  LIG A   1      21.519  18.425   8.794  1.00 20.00    +0.058 H 
ATOM     55 H55  LIG A   1      19.349  20.396   9.305  1.00 20.00    +0.163 HD
ATOM     56 H56  LIG A   1      19.669  21.446  11.852  1.00 20.00    +0.057 H 
ATOM     57 H57  LIG A   1      21.352  22.602  12.871  1.00 20.00    +0.029 H 
ATOM     58 H58  LIG A   1      22.535  22.237  11.606  1.00 20.00    +0.029 H 
ATOM     59 H59  LIG A   1      22.056  24.159  10.424  1.00 20.00    +0.028 H 
ATOM     60 H60  LIG A   1      21.407  24.755  11.962  1.00 20.00    +0.028 H 
ATOM     61 H61  LIG A   1      19.149  24.079  11.361  1.00 20.00    +0.043 H 
ATOM     62 H62  LIG A   1      19.784  24.675   9.815  1.00 20.00    +0.043 H 
ATOM     63 H63  LIG A   1      20.436  22.514   9.240  1.00 20.00    +0.123 HD
ATOM     64 H64  LIG A   1      21.039  32.426  18.118  1.00 20.00    +0.118 HD
ATOM     65 H65  LIG A   1      22.384  32.264  17.222  1.00 20.00    +0.118 HD
ATOM     66 H66  LIG A   1      21.108  32.190  15.192  1.00 20.00    +0.043 H 
ATOM     67 H67  LIG A   1      19.646  32.370  16.164  1.00 20.00    +0.043 H 
ATOM     68 H68  LIG A   1      20.197  30.243  17.386  1.00 20.00    +0.028 H 
ATOM     69 H69  LIG A   1      21.659  30.068  16.412  1.00 20.00    +0.028 H 
ATOM     70 H70  LIG A   1      18.801  30.167  15.301  1.00 20.00    +0.028 H 
ATOM     71 H71  LIG A   1      20.255  29.942  14.333  1.00 20.00    +0.028 H 
ATOM     72 H72  LIG A   1      19.033  27.812  14.791  1.00 20.00    +0.043 H 
ATOM     73 H73  LIG A   1      19.258  28.054  16.532  1.00 20.00    +0.043 H 
ATOM     74 H74  LIG A   1      21.407  27.745  14.528  1.00 20.00    +0.122 HD
ATOM     75 H75  LIG A   1      20.250  25.684  15.006  1.00 20.00    +0.043 H 
ATOM     76 H76  LIG A   1      20.527  25.993  16.732  1.00 20.00    +0.043 H 
ATOM     77 H77  LIG A   1      22.702  25.642  14.603  1.00 20.00    +0.030 H 
ATOM     78 H78  LIG A   1      23.009  26.073  16.282  1.00 20.00    +0.030 H 
ATOM     79 H79  LIG A   1      23.360  23.699  16.135  1.00 20.00    +0.049 H 
ATOM     80 H80  LIG A   1      21.900  23.969  17.050  1.00 20.00    +0.049 H 
ATOM     81 H81  LIG A   1      20.553  23.307  15.227  1.00 20.00    +0.160 HD
ATOM     82 H82  LIG A   1      24.054  23.475  14.036  1.00 20.00    +0.064 H 
ATOM     83 H83  LIG A   1      24.726  22.674  11.855  1.00 20.00    +0.063 H 
ATOM     84 H84  LIG A   1      25.292  21.923   9.577  1.00 20.00    +0.066 H 
ATOM     85 H85  LIG A   1      24.862  20.529   7.287  1.00 20.00    +0.066 H 
ATOM     86 H86  LIG A   1      23.635  18.869   5.913  1.00 20.00    +0.063 H 
ATOM     87 H87  LIG A   1      22.278  17.471   4.475  1.00 20.00    +0.064 H 
ATOM     88 H88  LIG A   1      18.623  17.165   4.879  1.00 20.00    +0.160 HD
ATOM     89 H89  LIG A   1      19.081  16.288   2.903  1.00 20.00    +0.049 H 
ATOM     90 H90  LIG A   1      20.622  17.105   2.963  1.00 20.00    +0.049 H 
ATOM     91 H91  LIG A   1      21.124  14.768   2.676  1.00 20.00    +0.030 H 
ATOM     92 H92  LIG A   1      21.526  15.120   4.348  1.00 20.00    +0.030 H 
ATOM     93 H93  LIG A   1      20.363  13.040   4.353  1.00 20.00    +0.043 H 
ATOM     94 H94  LIG A   1      19.268  14.234   5.051  1.00 20.00    +0.043 H 
ATOM     95 H95  LIG A   1      19.279  13.197   2.284  1.00 20.00    +0.122 HD
ATOM     96 H96  LIG A   1      17.295  12.182   2.665  1.00 20.00    +0.043 H 
ATOM     97 H97  LIG A   1      18.324  11.734   4.014  1.00 20.00    +0.043 H 
ATOM     98 H98  LIG A   1      17.208  13.481   5.437  1.00 20.00    +0.028 H 
ATOM     99 H99  LIG A   1      16.079  12.310   4.776  1.00 20.00    +0.028 H 
ATOM    100 H100 LIG A   1      15.422  13.917   2.979  1.00 20.00    +0.028 H 
ATOM    101 H101 LIG A   1      16.595  15.086   3.573  1.00 20.00    +0.028 H 
ATOM    102 H102 LIG A   1      15.389  15.244   5.750  1.00 20.00    +0.043 H 
ATOM    103 H103 LIG A   1      14.421  15.738   4.365  1.00 20.00    +0.043 H 
ATOM    104 H104 LIG A   1      13.430  13.530   4.385  1.00 20.00    +0.118 HD
ATOM    105 H105 LIG A   1      14.249  13.155   5.742  1.00 20.00    +0.118 HD
ATOM    106 H106 LIG A   1      18.850  18.219   6.964  1.00 20.00    +0.064 H 
ATOM    107 H107 LIG A   1      20.211  19.628   8.417  1.00 20.00    +0.063 H 
ATOM    108 H108 LIG A   1      20.756  21.137  11.187  1.00 20.00    +0.063 H 
ATOM    109 H109 LIG A   1      20.083  21.950  13.385  1.00 20.00    +0.064 H 
ENDROOT
TORSDOF 0
                                                                                                                
ENDMDL
