ROOT
ATOM      1 C1   LIG A   1      -8.035   0.624  -0.424  1.00 20.00    -0.060 C 
ATOM      2 C2   LIG A   1      -6.618   0.039  -0.578  1.00 20.00    -0.016 C 
ATOM      3 C3   LIG A   1      -5.597   1.199  -0.704  1.00 20.00    -0.023 C 
ATOM      4 C4   LIG A   1      -4.306   0.861  -1.433  1.00 20.00    -0.046 C 
ATOM      5 C5   LIG A   1      -3.140   1.546  -1.412  1.00 20.00    -0.059 C 
ATOM      6 C6   LIG A   1      -2.726   2.384  -0.294  1.00 20.00    -0.054 C 
ATOM      7 C7   LIG A   1      -1.444   2.403   0.154  1.00 20.00    +0.009 C 
ATOM      8 C8   LIG A   1      -0.337   2.158  -0.736  1.00 20.00    +0.131 A 
ATOM      9 C9   LIG A   1      -0.104   2.596  -2.036  1.00 20.00    -0.015 A 
ATOM     10 C10  LIG A   1       1.169   2.125  -2.436  1.00 20.00    -0.015 A 
ATOM     11 C11  LIG A   1       1.686   1.439  -1.358  1.00 20.00    +0.134 A 
ATOM     12 C12  LIG A   1       2.946   0.751  -1.087  1.00 20.00    +0.017 A 
ATOM     13 C13  LIG A   1       3.955   0.695  -2.057  1.00 20.00    -0.049 A 
ATOM     14 C14  LIG A   1       5.179   0.059  -1.796  1.00 20.00    -0.038 A 
ATOM     15 C15  LIG A   1       5.421  -0.571  -0.573  1.00 20.00    +0.034 A 
ATOM     16 N16  LIG A   1       6.645  -1.149  -0.218  1.00 20.00    -0.385 NA
ATOM     17 C17  LIG A   1       7.587  -1.551  -1.262  1.00 20.00    +0.022 C 
ATOM     18 C18  LIG A   1       8.850  -2.142  -0.638  1.00 20.00    +0.022 C 
ATOM     19 C19  LIG A   1       8.576  -3.513  -0.063  1.00 20.00    +0.092 C 
ATOM     20 N20  LIG A   1       8.727  -4.588  -0.760  1.00 20.00    -0.289 NA
ATOM     21 N21  LIG A   1       8.145  -3.626   1.221  1.00 20.00    -0.388 NA
ATOM     22 C22  LIG A   1       4.420  -0.486   0.405  1.00 20.00    -0.038 A 
ATOM     23 C23  LIG A   1       3.199   0.153   0.152  1.00 20.00    -0.049 A 
ATOM     24 O24  LIG A   1       0.778   1.456  -0.342  1.00 20.00    -0.456 OA
ATOM     25 C25  LIG A   1      -1.237   2.498   1.668  1.00 20.00    +0.085 C 
ATOM     26 C26  LIG A   1      -0.048   3.411   1.955  1.00 20.00    +0.311 C 
ATOM     27 O27  LIG A   1       0.087   4.559   1.556  1.00 20.00    -0.252 OA
ATOM     28 O28  LIG A   1       0.900   2.871   2.746  1.00 20.00    -0.481 OA
ATOM     29 C29  LIG A   1      -1.117   1.075   2.298  1.00 20.00    -0.034 C 
ATOM     30 C30  LIG A   1      -2.420   0.249   2.247  1.00 20.00    -0.034 C 
ATOM     31 C31  LIG A   1      -2.469  -0.914   1.218  1.00 20.00    +0.025 C 
ATOM     32 N32  LIG A   1      -3.777  -1.055   0.533  1.00 20.00    -0.318 NA
ATOM     33 C33  LIG A   1      -3.768  -1.405  -0.813  1.00 20.00    +0.007 C 
ATOM     34 C34  LIG A   1      -4.110  -0.542  -1.786  1.00 20.00    -0.043 C 
ATOM     35 C35  LIG A   1      -4.952  -0.974   1.284  1.00 20.00    +0.243 C 
ATOM     36 O36  LIG A   1      -4.928  -0.956   2.522  1.00 20.00    -0.273 OA
ATOM     37 C37  LIG A   1      -6.340  -0.954   0.584  1.00 20.00    +0.088 C 
ATOM     38 N38  LIG A   1      -6.762  -2.330   0.231  1.00 20.00    -0.320 NA
ATOM     39 O39  LIG A   1       2.360   0.456  -0.441  1.00 20.00    -0.504 OA
ATOM     40 C40  LIG A   1       1.050   0.073  -0.358  1.00 20.00    +0.161 A 
ATOM     41 C41  LIG A   1       0.491  -0.839  -1.248  1.00 20.00    -0.016 A 
ATOM     42 C42  LIG A   1      -0.858  -1.193  -1.110  1.00 20.00    -0.055 A 
ATOM     43 C43  LIG A   1      -1.638  -0.637  -0.090  1.00 20.00    -0.016 A 
ATOM     44 C44  LIG A   1      -1.064   0.270   0.789  1.00 20.00    +0.161 A 
ATOM     45 O45  LIG A   1      -1.821   0.811   1.787  1.00 20.00    -0.504 OA
ATOM     46 C46  LIG A   1       0.273   0.625   0.656  1.00 20.00    +0.200 A 
ATOM     47 O47  LIG A   1       0.816   1.520   1.537  1.00 20.00    -0.502 OA
ATOM     48 H48  LIG A   1      -8.116   1.238   0.479  1.00 20.00    +0.023 H 
ATOM     49 H49  LIG A   1      -8.289   1.254  -1.283  1.00 20.00    +0.023 H 
ATOM     50 H50  LIG A   1      -8.786  -0.170  -0.366  1.00 20.00    +0.023 H 
ATOM     51 H51  LIG A   1      -6.645  -0.510  -1.529  1.00 20.00    +0.032 H 
ATOM     52 H52  LIG A   1      -6.061   2.008  -1.285  1.00 20.00    +0.032 H 
ATOM     53 H53  LIG A   1      -5.404   1.610   0.293  1.00 20.00    +0.032 H 
ATOM     54 H54  LIG A   1      -2.317   1.111  -1.982  1.00 20.00    +0.063 H 
ATOM     55 H55  LIG A   1      -3.517   2.643   0.406  1.00 20.00    +0.063 H 
ATOM     56 H56  LIG A   1      -0.782   3.205  -2.619  1.00 20.00    +0.066 H 
ATOM     57 H57  LIG A   1       1.654   2.293  -3.387  1.00 20.00    +0.066 H 
ATOM     58 H58  LIG A   1       3.816   1.160  -3.030  1.00 20.00    +0.063 H 
ATOM     59 H59  LIG A   1       5.931   0.074  -2.577  1.00 20.00    +0.064 H 
ATOM     60 H60  LIG A   1       6.499  -1.898   0.463  1.00 20.00    +0.160 HD
ATOM     61 H61  LIG A   1       7.890  -0.674  -1.845  1.00 20.00    +0.049 H 
ATOM     62 H62  LIG A   1       7.118  -2.276  -1.936  1.00 20.00    +0.049 H 
ATOM     63 H63  LIG A   1       9.236  -1.490   0.153  1.00 20.00    +0.037 H 
ATOM     64 H64  LIG A   1       9.627  -2.235  -1.403  1.00 20.00    +0.037 H 
ATOM     65 H65  LIG A   1       9.045  -4.370  -1.709  1.00 20.00    +0.189 HD
ATOM     66 H66  LIG A   1       8.224  -4.580   1.563  1.00 20.00    +0.157 HD
ATOM     67 H67  LIG A   1       8.491  -2.939   1.880  1.00 20.00    +0.157 HD
ATOM     68 H68  LIG A   1       4.588  -0.915   1.390  1.00 20.00    +0.064 H 
ATOM     69 H69  LIG A   1       2.456   0.191   0.947  1.00 20.00    +0.063 H 
ATOM     70 H70  LIG A   1      -2.089   3.000   2.149  1.00 20.00    +0.047 H 
ATOM     71 H71  LIG A   1       1.592   3.565   2.786  1.00 20.00    +0.296 HD
ATOM     72 H72  LIG A   1      -0.282   0.511   1.867  1.00 20.00    +0.028 H 
ATOM     73 H73  LIG A   1      -0.866   1.207   3.360  1.00 20.00    +0.028 H 
ATOM     74 H74  LIG A   1      -3.268   0.931   2.124  1.00 20.00    +0.029 H 
ATOM     75 H75  LIG A   1      -2.550  -0.204   3.239  1.00 20.00    +0.029 H 
ATOM     76 H76  LIG A   1      -1.696  -0.769   0.454  1.00 20.00    +0.050 H 
ATOM     77 H77  LIG A   1      -2.264  -1.864   1.728  1.00 20.00    +0.050 H 
ATOM     78 H78  LIG A   1      -3.404  -2.405  -1.041  1.00 20.00    +0.082 H 
ATOM     79 H79  LIG A   1      -4.079  -0.819  -2.835  1.00 20.00    +0.064 H 
ATOM     80 H80  LIG A   1      -7.016  -0.659   1.400  1.00 20.00    +0.057 H 
ATOM     81 H81  LIG A   1      -6.109  -2.708  -0.453  1.00 20.00    +0.119 HD
ATOM     82 H82  LIG A   1      -6.664  -2.911   1.065  1.00 20.00    +0.119 HD
ATOM     83 H83  LIG A   1       2.756   0.012  -1.210  1.00 20.00    +0.293 HD
ATOM     84 H84  LIG A   1       1.082  -1.289  -2.041  1.00 20.00    +0.066 H 
ATOM     85 H85  LIG A   1      -1.304  -1.908  -1.798  1.00 20.00    +0.063 H 
ATOM     86 H86  LIG A   1      -2.684  -0.914   0.020  1.00 20.00    +0.066 H 
ATOM     87 H87  LIG A   1      -1.206   1.407   2.263  1.00 20.00    +0.293 HD
ATOM     88 H88  LIG A   1       1.747   1.605   1.244  1.00 20.00    +0.293 HD
ENDROOT
TORSDOF 0
