ROOT
ATOM      1 C1   LIG A   1      -7.849   1.582   0.183  1.00 20.00    -0.060 C 
ATOM      2 C2   LIG A   1      -6.656   0.836  -0.302  1.00 20.00    -0.016 C 
ATOM      3 C3   LIG A   1      -5.576   1.924  -0.444  1.00 20.00    -0.023 C 
ATOM      4 C4   LIG A   1      -4.712   1.457  -1.436  1.00 20.00    -0.046 C 
ATOM      5 C5   LIG A   1      -3.476   1.273  -1.050  1.00 20.00    -0.059 C 
ATOM      6 C6   LIG A   1      -2.765   1.381   0.128  1.00 20.00    -0.054 C 
ATOM      7 C7   LIG A   1      -1.482   1.131   0.290  1.00 20.00    +0.009 C 
ATOM      8 C8   LIG A   1      -0.399   0.778  -0.441  1.00 20.00    +0.131 A 
ATOM      9 C9   LIG A   1      -0.283   0.377  -1.742  1.00 20.00    -0.015 A 
ATOM     10 C10  LIG A   1       1.056   0.182  -1.932  1.00 20.00    -0.015 A 
ATOM     11 C11  LIG A   1       1.679   0.467  -0.760  1.00 20.00    +0.134 A 
ATOM     12 C12  LIG A   1       3.114   0.405  -0.489  1.00 20.00    +0.017 A 
ATOM     13 C13  LIG A   1       3.885  -0.062  -1.497  1.00 20.00    -0.049 A 
ATOM     14 C14  LIG A   1       5.243  -0.122  -1.295  1.00 20.00    -0.038 A 
ATOM     15 C15  LIG A   1       5.845   0.271  -0.123  1.00 20.00    +0.034 A 
ATOM     16 N16  LIG A   1       7.277   0.181   0.019  1.00 20.00    -0.385 NA
ATOM     17 C17  LIG A   1       7.994  -0.335  -1.125  1.00 20.00    +0.022 C 
ATOM     18 C18  LIG A   1       9.473  -0.379  -0.831  1.00 20.00    +0.022 C 
ATOM     19 C19  LIG A   1       9.699  -1.270   0.337  1.00 20.00    +0.092 C 
ATOM     20 N20  LIG A   1      10.444  -2.328   0.204  1.00 20.00    -0.289 NA
ATOM     21 N21  LIG A   1       9.136  -1.023   1.614  1.00 20.00    -0.388 NA
ATOM     22 C22  LIG A   1       5.070   0.749   0.910  1.00 20.00    -0.038 A 
ATOM     23 C23  LIG A   1       3.697   0.800   0.680  1.00 20.00    -0.049 A 
ATOM     24 O24  LIG A   1       0.832   0.813   0.112  1.00 20.00    -0.456 OA
ATOM     25 C25  LIG A   1      -1.427   0.638   1.811  1.00 20.00    +0.085 C 
ATOM     26 C26  LIG A   1      -0.171   0.800   2.453  1.00 20.00    +0.311 C 
ATOM     27 O27  LIG A   1       0.039   1.817   3.192  1.00 20.00    -0.252 OA
ATOM     28 O28  LIG A   1       0.933  -0.077   2.378  1.00 20.00    -0.481 OA
ATOM     29 C29  LIG A   1      -1.545  -0.941   1.567  1.00 20.00    -0.034 C 
ATOM     30 C30  LIG A   1      -2.938  -1.224   0.981  1.00 20.00    -0.034 C 
ATOM     31 C31  LIG A   1      -3.058  -1.534  -0.469  1.00 20.00    +0.025 C 
ATOM     32 N32  LIG A   1      -4.353  -1.198  -1.012  1.00 20.00    -0.318 NA
ATOM     33 C33  LIG A   1      -4.646  -0.785  -2.382  1.00 20.00    +0.007 C 
ATOM     34 C34  LIG A   1      -4.947   0.575  -2.677  1.00 20.00    -0.043 C 
ATOM     35 C35  LIG A   1      -5.305  -1.246   0.067  1.00 20.00    +0.243 C 
ATOM     36 O36  LIG A   1      -5.193  -2.335   0.654  1.00 20.00    -0.273 OA
ATOM     37 C37  LIG A   1      -6.332  -0.295   0.577  1.00 20.00    +0.088 C 
ATOM     38 N38  LIG A   1      -7.594  -1.060   0.739  1.00 20.00    -0.320 NA
ATOM     39 C39  LIG A   1      -1.808   0.349  -0.057  1.00 20.00    +0.000 C 
ATOM     40 C40  LIG A   1      -0.806  -0.762   0.158  1.00 20.00    +0.000 C 
ATOM     41 Se41 LIG A   1       0.797  -0.090   1.019  1.00 20.00    +0.000 Se
ATOM     42 C42  LIG A   1       2.215   0.275  -0.226  1.00 20.00    +0.000 C 
ATOM     43 H43  LIG A   1      -7.916   1.381   1.293  1.00 20.00    +0.023 H 
ATOM     44 H44  LIG A   1      -7.803   2.686   0.025  1.00 20.00    +0.023 H 
ATOM     45 H45  LIG A   1      -8.727   1.130  -0.278  1.00 20.00    +0.023 H 
ATOM     46 H46  LIG A   1      -6.896   0.445  -1.330  1.00 20.00    +0.032 H 
ATOM     47 H47  LIG A   1      -5.994   2.918  -0.666  1.00 20.00    +0.032 H 
ATOM     48 H48  LIG A   1      -5.076   2.061   0.566  1.00 20.00    +0.032 H 
ATOM     49 H49  LIG A   1      -2.953   0.987  -1.914  1.00 20.00    +0.063 H 
ATOM     50 H50  LIG A   1      -3.068   1.749   1.011  1.00 20.00    +0.063 H 
ATOM     51 H51  LIG A   1      -1.001   0.214  -2.527  1.00 20.00    +0.066 H 
ATOM     52 H52  LIG A   1       1.476  -0.139  -2.866  1.00 20.00    +0.066 H 
ATOM     53 H53  LIG A   1       3.444  -0.373  -2.412  1.00 20.00    +0.063 H 
ATOM     54 H54  LIG A   1       5.820  -0.502  -2.129  1.00 20.00    +0.064 H 
ATOM     55 H55  LIG A   1       7.705   0.482   0.907  1.00 20.00    +0.160 HD
ATOM     56 H56  LIG A   1       7.839   0.369  -1.994  1.00 20.00    +0.049 H 
ATOM     57 H57  LIG A   1       7.617  -1.343  -1.422  1.00 20.00    +0.049 H 
ATOM     58 H58  LIG A   1       9.774   0.669  -0.544  1.00 20.00    +0.037 H 
ATOM     59 H59  LIG A   1      10.039  -0.722  -1.720  1.00 20.00    +0.037 H 
ATOM     60 H60  LIG A   1      10.873  -2.540  -0.719  1.00 20.00    +0.189 HD
ATOM     61 H61  LIG A   1       8.305  -1.586   1.956  1.00 20.00    +0.157 HD
ATOM     62 H62  LIG A   1       9.567  -0.262   2.217  1.00 20.00    +0.157 HD
ATOM     63 H63  LIG A   1       5.501   1.068   1.845  1.00 20.00    +0.064 H 
ATOM     64 H64  LIG A   1       3.108   1.188   1.495  1.00 20.00    +0.063 H 
ATOM     65 H65  LIG A   1      -2.299   0.901   2.343  1.00 20.00    +0.047 H 
ATOM     66 H66  LIG A   1       1.684  -0.040   3.079  1.00 20.00    +0.296 HD
ATOM     67 H67  LIG A   1      -0.749  -1.259   0.914  1.00 20.00    +0.028 H 
ATOM     68 H68  LIG A   1      -1.483  -1.376   2.558  1.00 20.00    +0.028 H 
ATOM     69 H69  LIG A   1      -3.617  -0.469   1.385  1.00 20.00    +0.029 H 
ATOM     70 H70  LIG A   1      -3.278  -2.169   1.589  1.00 20.00    +0.029 H 
ATOM     71 H71  LIG A   1      -2.234  -1.255  -1.112  1.00 20.00    +0.050 H 
ATOM     72 H72  LIG A   1      -3.019  -2.709  -0.507  1.00 20.00    +0.050 H 
ATOM     73 H73  LIG A   1      -4.653  -1.414  -3.166  1.00 20.00    +0.082 H 
ATOM     74 H74  LIG A   1      -5.246   0.862  -3.530  1.00 20.00    +0.064 H 
ATOM     75 H75  LIG A   1      -6.065   0.003   1.602  1.00 20.00    +0.057 H 
ATOM     76 H76  LIG A   1      -7.760  -1.671  -0.069  1.00 20.00    +0.119 HD
ATOM     77 H77  LIG A   1      -7.626  -1.507   1.663  1.00 20.00    +0.119 HD
ATOM     78 H78  LIG A   1      -2.798   0.137   0.393  1.00 20.00    +0.000 H 
ATOM     79 H79  LIG A   1      -1.950   0.487  -1.137  1.00 20.00    +0.000 H 
ATOM     80 H80  LIG A   1      -1.435   1.258   0.454  1.00 20.00    +0.000 H 
ATOM     81 H81  LIG A   1      -1.298  -1.496   0.849  1.00 20.00    +0.000 H 
ATOM     82 H82  LIG A   1      -0.514  -1.258  -0.798  1.00 20.00    +0.000 H 
ATOM     83 H83  LIG A   1       2.364   1.381  -0.271  1.00 20.00    +0.000 H 
ATOM     84 H84  LIG A   1       2.046  -0.122  -1.237  1.00 20.00    +0.000 H 
ATOM     85 H85  LIG A   1       3.188  -0.160   0.119  1.00 20.00    +0.000 H 
ENDROOT
TORSDOF 0
