ROOT
ATOM      1 C1   LIG A   1      -0.609   0.738   2.594  1.00 20.00    -0.060 C 
ATOM      2 C2   LIG A   1       0.053   0.728   1.209  1.00 20.00    -0.016 C 
ATOM      3 C3   LIG A   1      -0.838   1.430   0.150  1.00 20.00    -0.022 C 
ATOM      4 C4   LIG A   1      -2.044   0.596  -0.273  1.00 20.00    -0.029 A 
ATOM      5 C5   LIG A   1      -1.875  -0.464  -1.218  1.00 20.00    +0.004 A 
ATOM      6 C6   LIG A   1      -0.652  -0.798  -1.858  1.00 20.00    -0.053 A 
ATOM      7 C7   LIG A   1      -0.559  -1.853  -2.766  1.00 20.00    -0.062 A 
ATOM      8 C8   LIG A   1      -1.688  -2.600  -3.057  1.00 20.00    -0.060 A 
ATOM      9 C9   LIG A   1      -2.898  -2.279  -2.443  1.00 20.00    -0.036 A 
ATOM     10 C10  LIG A   1      -3.013  -1.231  -1.538  1.00 20.00    +0.071 A 
ATOM     11 N11  LIG A   1      -4.221  -1.005  -1.012  1.00 20.00    -0.248 NA
ATOM     12 C12  LIG A   1      -4.387  -0.003  -0.141  1.00 20.00    +0.071 A 
ATOM     13 C13  LIG A   1      -5.666   0.190   0.363  1.00 20.00    -0.036 A 
ATOM     14 C14  LIG A   1      -5.958   1.199   1.279  1.00 20.00    -0.060 A 
ATOM     15 C15  LIG A   1      -4.946   2.041   1.705  1.00 20.00    -0.062 A 
ATOM     16 C16  LIG A   1      -3.652   1.866   1.211  1.00 20.00    -0.053 A 
ATOM     17 C17  LIG A   1      -3.339   0.843   0.277  1.00 20.00    +0.004 A 
ATOM     18 C18  LIG A   1       1.477   1.336   1.300  1.00 20.00    +0.087 C 
ATOM     19 N19  LIG A   1       1.456   2.800   1.528  1.00 20.00    -0.320 NA
ATOM     20 C20  LIG A   1       2.300   1.023   0.027  1.00 20.00    +0.240 C 
ATOM     21 O21  LIG A   1       2.354   1.836  -0.902  1.00 20.00    -0.273 OA
ATOM     22 N22  LIG A   1       2.950  -0.187  -0.047  1.00 20.00    -0.328 NA
ATOM     23 C23  LIG A   1       2.945  -1.274   0.914  1.00 20.00    +0.022 C 
ATOM     24 C24  LIG A   1       3.142  -2.503   0.045  1.00 20.00    -0.033 C 
ATOM     25 C25  LIG A   1       4.098  -2.013  -1.037  1.00 20.00    -0.020 C 
ATOM     26 C26  LIG A   1       3.723  -0.539  -1.244  1.00 20.00    +0.129 C 
ATOM     27 C27  LIG A   1       5.009   0.272  -1.438  1.00 20.00    +0.326 C 
ATOM     28 O28  LIG A   1       5.732   0.221  -2.423  1.00 20.00    -0.250 OA
ATOM     29 O29  LIG A   1       5.375   1.020  -0.376  1.00 20.00    -0.480 OA
ATOM     30 O30  LIG A   1       1.599  -1.648  -0.580  1.00 20.00    -0.504 OA
ATOM     31 C31  LIG A   1       0.588  -0.773  -0.306  1.00 20.00    +0.157 A 
ATOM     32 C32  LIG A   1      -0.723  -1.164  -0.540  1.00 20.00    -0.016 A 
ATOM     33 C33  LIG A   1      -1.764  -0.299  -0.199  1.00 20.00    -0.058 A 
ATOM     34 C34  LIG A   1      -1.485   0.948   0.371  1.00 20.00    -0.058 A 
ATOM     35 C35  LIG A   1      -0.163   1.341   0.587  1.00 20.00    -0.016 A 
ATOM     36 C36  LIG A   1       0.867   0.482   0.229  1.00 20.00    +0.157 A 
ATOM     37 O37  LIG A   1       2.158   0.898   0.380  1.00 20.00    -0.504 OA
ATOM     38 H38  LIG A   1      -1.547   0.174   2.588  1.00 20.00    +0.023 H 
ATOM     39 H39  LIG A   1       0.042   0.265   3.338  1.00 20.00    +0.023 H 
ATOM     40 H40  LIG A   1      -0.824   1.756   2.933  1.00 20.00    +0.023 H 
ATOM     41 H41  LIG A   1       0.156  -0.324   0.920  1.00 20.00    +0.032 H 
ATOM     42 H42  LIG A   1      -1.144   2.419   0.504  1.00 20.00    +0.032 H 
ATOM     43 H43  LIG A   1      -0.263   1.663  -0.754  1.00 20.00    +0.032 H 
ATOM     44 H44  LIG A   1       0.252  -0.227  -1.669  1.00 20.00    +0.063 H 
ATOM     45 H45  LIG A   1       0.389  -2.081  -3.245  1.00 20.00    +0.062 H 
ATOM     46 H46  LIG A   1      -1.638  -3.424  -3.764  1.00 20.00    +0.062 H 
ATOM     47 H47  LIG A   1      -3.785  -2.863  -2.679  1.00 20.00    +0.065 H 
ATOM     48 H48  LIG A   1      -6.464  -0.471   0.030  1.00 20.00    +0.065 H 
ATOM     49 H49  LIG A   1      -6.971   1.321   1.652  1.00 20.00    +0.062 H 
ATOM     50 H50  LIG A   1      -5.155   2.834   2.420  1.00 20.00    +0.062 H 
ATOM     51 H51  LIG A   1      -2.890   2.547   1.577  1.00 20.00    +0.063 H 
ATOM     52 H52  LIG A   1       2.007   0.902   2.155  1.00 20.00    +0.057 H 
ATOM     53 H53  LIG A   1       2.420   3.108   1.668  1.00 20.00    +0.119 HD
ATOM     54 H54  LIG A   1       1.202   3.240   0.636  1.00 20.00    +0.119 HD
ATOM     55 H55  LIG A   1       2.028  -1.322   1.501  1.00 20.00    +0.049 H 
ATOM     56 H56  LIG A   1       3.794  -1.124   1.590  1.00 20.00    +0.049 H 
ATOM     57 H57  LIG A   1       3.533  -3.358   0.603  1.00 20.00    +0.029 H 
ATOM     58 H58  LIG A   1       2.189  -2.797  -0.412  1.00 20.00    +0.029 H 
ATOM     59 H59  LIG A   1       5.132  -2.120  -0.688  1.00 20.00    +0.029 H 
ATOM     60 H60  LIG A   1       4.002  -2.592  -1.961  1.00 20.00    +0.029 H 
ATOM     61 H61  LIG A   1       3.081  -0.391  -2.119  1.00 20.00    +0.065 H 
ATOM     62 H62  LIG A   1       6.185   1.478  -0.681  1.00 20.00    +0.296 HD
ATOM     63 H63  LIG A   1       2.253  -1.529   0.132  1.00 20.00    +0.293 HD
ATOM     64 H64  LIG A   1      -0.935  -2.140  -0.967  1.00 20.00    +0.066 H 
ATOM     65 H65  LIG A   1      -2.795  -0.599  -0.370  1.00 20.00    +0.062 H 
ATOM     66 H66  LIG A   1      -2.299   1.616   0.640  1.00 20.00    +0.062 H 
ATOM     67 H67  LIG A   1       0.059   2.315   1.013  1.00 20.00    +0.066 H 
ATOM     68 H68  LIG A   1       2.641   0.552  -0.393  1.00 20.00    +0.293 HD
ENDROOT
TORSDOF 0
