ROOT
ATOM      1 C1   LIG A   1      -0.601   0.770   2.587  1.00 20.00    -0.060 C 
ATOM      2 C2   LIG A   1       0.053   0.747   1.198  1.00 20.00    -0.016 C 
ATOM      3 C3   LIG A   1      -0.849   1.426   0.134  1.00 20.00    -0.022 C 
ATOM      4 C4   LIG A   1      -2.050   0.576  -0.271  1.00 20.00    -0.029 A 
ATOM      5 C5   LIG A   1      -1.878  -0.496  -1.201  1.00 20.00    +0.004 A 
ATOM      6 C6   LIG A   1      -0.655  -0.828  -1.844  1.00 20.00    -0.053 A 
ATOM      7 C7   LIG A   1      -0.558  -1.896  -2.737  1.00 20.00    -0.062 A 
ATOM      8 C8   LIG A   1      -1.682  -2.656  -3.012  1.00 20.00    -0.060 A 
ATOM      9 C9   LIG A   1      -2.892  -2.336  -2.395  1.00 20.00    -0.036 A 
ATOM     10 C10  LIG A   1      -3.010  -1.277  -1.504  1.00 20.00    +0.071 A 
ATOM     11 N11  LIG A   1      -4.217  -1.053  -0.975  1.00 20.00    -0.248 NA
ATOM     12 C12  LIG A   1      -4.387  -0.040  -0.118  1.00 20.00    +0.071 A 
ATOM     13 C13  LIG A   1      -5.665   0.149   0.391  1.00 20.00    -0.036 A 
ATOM     14 C14  LIG A   1      -5.961   1.169   1.294  1.00 20.00    -0.060 A 
ATOM     15 C15  LIG A   1      -4.953   2.025   1.703  1.00 20.00    -0.062 A 
ATOM     16 C16  LIG A   1      -3.661   1.854   1.205  1.00 20.00    -0.053 A 
ATOM     17 C17  LIG A   1      -3.344   0.820   0.283  1.00 20.00    +0.004 A 
ATOM     18 C18  LIG A   1       1.473   1.367   1.273  1.00 20.00    +0.087 C 
ATOM     19 N19  LIG A   1       1.441   2.834   1.479  1.00 20.00    -0.320 NA
ATOM     20 C20  LIG A   1       2.292   1.043  -0.000  1.00 20.00    +0.240 C 
ATOM     21 O21  LIG A   1       2.334   1.842  -0.941  1.00 20.00    -0.273 OA
ATOM     22 N22  LIG A   1       2.952  -0.163  -0.060  1.00 20.00    -0.328 NA
ATOM     23 C23  LIG A   1       2.960  -1.236   0.916  1.00 20.00    +0.022 C 
ATOM     24 C24  LIG A   1       3.163  -2.476   0.064  1.00 20.00    -0.033 C 
ATOM     25 C25  LIG A   1       4.109  -1.993  -1.029  1.00 20.00    -0.020 C 
ATOM     26 C26  LIG A   1       3.722  -0.525  -1.256  1.00 20.00    +0.129 C 
ATOM     27 C27  LIG A   1       4.999   0.293  -1.469  1.00 20.00    +0.326 C 
ATOM     28 O28  LIG A   1       5.717   0.233  -2.457  1.00 20.00    -0.250 OA
ATOM     29 O29  LIG A   1       5.365   1.059  -0.419  1.00 20.00    -0.480 OA
ATOM     30 N30  LIG A   1       3.158  -0.752  -0.329  1.00 20.00    -0.328 NA
ATOM     31 C31  LIG A   1       1.787  -0.345  -0.636  1.00 20.00    +0.016 C 
ATOM     32 C32  LIG A   1       1.114   0.415   0.516  1.00 20.00    +0.059 C 
ATOM     33 O33  LIG A   1      -0.164   0.933   0.144  1.00 20.00    -0.378 OA
ATOM     34 C34  LIG A   1      -1.200  -0.045   0.177  1.00 20.00    +0.070 C 
ATOM     35 C35  LIG A   1      -2.522   0.609  -0.215  1.00 20.00    +0.067 C 
ATOM     36 O36  LIG A   1      -3.595  -0.320  -0.123  1.00 20.00    -0.394 OA
ATOM     37 H37  LIG A   1      -1.534   0.199   2.594  1.00 20.00    +0.023 H 
ATOM     38 H38  LIG A   1       0.058   0.314   3.333  1.00 20.00    +0.023 H 
ATOM     39 H39  LIG A   1      -0.822   1.792   2.912  1.00 20.00    +0.023 H 
ATOM     40 H40  LIG A   1       0.164  -0.309   0.923  1.00 20.00    +0.032 H 
ATOM     41 H41  LIG A   1      -1.161   2.417   0.476  1.00 20.00    +0.032 H 
ATOM     42 H42  LIG A   1      -0.281   1.651  -0.776  1.00 20.00    +0.032 H 
ATOM     43 H43  LIG A   1       0.245  -0.247  -1.667  1.00 20.00    +0.063 H 
ATOM     44 H44  LIG A   1       0.389  -2.122  -3.218  1.00 20.00    +0.062 H 
ATOM     45 H45  LIG A   1      -1.630  -3.489  -3.707  1.00 20.00    +0.062 H 
ATOM     46 H46  LIG A   1      -3.775  -2.931  -2.618  1.00 20.00    +0.065 H 
ATOM     47 H47  LIG A   1      -6.459  -0.523   0.072  1.00 20.00    +0.065 H 
ATOM     48 H48  LIG A   1      -6.973   1.287   1.671  1.00 20.00    +0.062 H 
ATOM     49 H49  LIG A   1      -5.165   2.826   2.407  1.00 20.00    +0.062 H 
ATOM     50 H50  LIG A   1      -2.902   2.546   1.557  1.00 20.00    +0.063 H 
ATOM     51 H51  LIG A   1       2.011   0.950   2.131  1.00 20.00    +0.057 H 
ATOM     52 H52  LIG A   1       2.404   3.152   1.610  1.00 20.00    +0.119 HD
ATOM     53 H53  LIG A   1       1.179   3.259   0.583  1.00 20.00    +0.119 HD
ATOM     54 H54  LIG A   1       2.047  -1.283   1.509  1.00 20.00    +0.049 H 
ATOM     55 H55  LIG A   1       3.811  -1.069   1.585  1.00 20.00    +0.049 H 
ATOM     56 H56  LIG A   1       3.565  -3.319   0.633  1.00 20.00    +0.029 H 
ATOM     57 H57  LIG A   1       2.211  -2.784  -0.384  1.00 20.00    +0.029 H 
ATOM     58 H58  LIG A   1       5.147  -2.087  -0.684  1.00 20.00    +0.029 H 
ATOM     59 H59  LIG A   1       4.014  -2.587  -1.944  1.00 20.00    +0.029 H 
ATOM     60 H60  LIG A   1       3.073  -0.396  -2.129  1.00 20.00    +0.065 H 
ATOM     61 H61  LIG A   1       6.169   1.520  -0.736  1.00 20.00    +0.296 HD
ATOM     62 H62  LIG A   1       3.725   0.074  -0.139  1.00 20.00    +0.118 HD
ATOM     63 H63  LIG A   1       3.173  -1.310   0.524  1.00 20.00    +0.118 HD
ATOM     64 H64  LIG A   1       1.788   0.280  -1.537  1.00 20.00    +0.045 H 
ATOM     65 H65  LIG A   1       1.207  -1.238  -0.890  1.00 20.00    +0.045 H 
ATOM     66 H66  LIG A   1       1.731   1.280   0.785  1.00 20.00    +0.058 H 
ATOM     67 H67  LIG A   1       1.026  -0.210   1.413  1.00 20.00    +0.058 H 
ATOM     68 H68  LIG A   1      -0.983  -0.867  -0.514  1.00 20.00    +0.059 H 
ATOM     69 H69  LIG A   1      -1.282  -0.468   1.185  1.00 20.00    +0.059 H 
ATOM     70 H70  LIG A   1      -2.469   0.978  -1.245  1.00 20.00    +0.059 H 
ATOM     71 H71  LIG A   1      -2.739   1.472   0.422  1.00 20.00    +0.059 H 
ATOM     72 H72  LIG A   1      -3.755  -0.485   0.822  1.00 20.00    +0.210 HD
ENDROOT
TORSDOF 0
