ROOT
ATOM      1 N1   LIG A   1     -12.001   0.426   0.419  1.00 20.00    -0.289 NA
ATOM      2 C2   LIG A   1     -10.720   0.331   0.274  1.00 20.00    +0.092 C 
ATOM      3 N3   LIG A   1      -9.945   1.380   0.661  1.00 20.00    -0.388 NA
ATOM      4 C4   LIG A   1     -10.070  -0.903  -0.313  1.00 20.00    +0.022 C 
ATOM      5 C5   LIG A   1      -9.771  -0.707  -1.797  1.00 20.00    +0.022 C 
ATOM      6 N6   LIG A   1      -8.687   0.248  -2.030  1.00 20.00    -0.384 NA
ATOM      7 C7   LIG A   1      -7.358  -0.044  -1.729  1.00 20.00    +0.038 A 
ATOM      8 C8   LIG A   1      -6.850  -1.347  -1.641  1.00 20.00    -0.038 A 
ATOM      9 C9   LIG A   1      -5.491  -1.582  -1.400  1.00 20.00    -0.045 A 
ATOM     10 C10  LIG A   1      -4.612  -0.506  -1.273  1.00 20.00    +0.065 A 
ATOM     11 C11  LIG A   1      -3.177  -0.726  -1.018  1.00 20.00    +0.200 C 
ATOM     12 O12  LIG A   1      -2.737  -1.862  -0.882  1.00 20.00    -0.288 OA
ATOM     13 C13  LIG A   1      -2.321   0.492  -0.939  1.00 20.00    +0.065 C 
ATOM     14 C14  LIG A   1      -0.870   0.425  -0.686  1.00 20.00    -0.011 A 
ATOM     15 C15  LIG A   1       0.039   1.131  -1.481  1.00 20.00    -0.052 A 
ATOM     16 C16  LIG A   1       1.414   1.067  -1.223  1.00 20.00    -0.038 A 
ATOM     17 C17  LIG A   1       1.929   0.276  -0.187  1.00 20.00    +0.034 A 
ATOM     18 N18  LIG A   1       3.307   0.314   0.055  1.00 20.00    -0.385 NA
ATOM     19 C19  LIG A   1       3.920  -0.711   0.894  1.00 20.00    +0.016 C 
ATOM     20 C20  LIG A   1       5.438  -0.523   0.946  1.00 20.00    -0.023 C 
ATOM     21 C21  LIG A   1       5.835   0.747   1.708  1.00 20.00    -0.003 C 
ATOM     22 N22  LIG A   1       7.284   0.890   1.888  1.00 20.00    -0.317 NA
ATOM     23 C23  LIG A   1       7.973   1.249   0.650  1.00 20.00    -0.005 C 
ATOM     24 C24  LIG A   1       9.443   1.593   0.910  1.00 20.00    -0.039 C 
ATOM     25 C25  LIG A   1      10.292   0.551   1.652  1.00 20.00    -0.040 C 
ATOM     26 C26  LIG A   1      10.275  -0.856   1.054  1.00 20.00    -0.008 C 
ATOM     27 N27  LIG A   1       9.114  -1.627   1.498  1.00 20.00    -0.330 NA
ATOM     28 C28  LIG A   1       1.012  -0.399   0.624  1.00 20.00    -0.038 A 
ATOM     29 C29  LIG A   1      -0.365  -0.341   0.370  1.00 20.00    -0.052 A 
ATOM     30 C30  LIG A   1      -2.937   1.678  -1.076  1.00 20.00    +0.103 C 
ATOM     31 O31  LIG A   1      -4.275   1.892  -1.301  1.00 20.00    -0.463 OA
ATOM     32 C32  LIG A   1      -5.088   0.792  -1.398  1.00 20.00    +0.139 A 
ATOM     33 C33  LIG A   1      -6.446   1.019  -1.637  1.00 20.00    +0.005 A 
ATOM     34 O34  LIG A   1       1.576  -1.585  -0.783  1.00 20.00    -0.504 OA
ATOM     35 C35  LIG A   1       0.574  -0.751  -0.377  1.00 20.00    +0.157 A 
ATOM     36 C36  LIG A   1      -0.736  -1.209  -0.408  1.00 20.00    -0.016 A 
ATOM     37 C37  LIG A   1      -1.757  -0.385   0.069  1.00 20.00    -0.058 A 
ATOM     38 C38  LIG A   1      -1.459   0.886   0.571  1.00 20.00    -0.058 A 
ATOM     39 C39  LIG A   1      -0.141   1.346   0.582  1.00 20.00    -0.016 A 
ATOM     40 C40  LIG A   1       0.866   0.527   0.090  1.00 20.00    +0.157 A 
ATOM     41 O41  LIG A   1       2.143   1.006   0.042  1.00 20.00    -0.504 OA
ATOM     42 H42  LIG A   1     -12.475  -0.421   0.090  1.00 20.00    +0.189 HD
ATOM     43 H43  LIG A   1     -10.447   2.021   1.269  1.00 20.00    +0.157 HD
ATOM     44 H44  LIG A   1      -9.008   1.163   0.981  1.00 20.00    +0.157 HD
ATOM     45 H45  LIG A   1      -9.164  -1.132   0.259  1.00 20.00    +0.037 H 
ATOM     46 H46  LIG A   1     -10.756  -1.750  -0.191  1.00 20.00    +0.037 H 
ATOM     47 H47  LIG A   1     -10.665  -0.320  -2.302  1.00 20.00    +0.049 H 
ATOM     48 H48  LIG A   1      -9.551  -1.668  -2.274  1.00 20.00    +0.049 H 
ATOM     49 H49  LIG A   1      -8.956   1.193  -1.751  1.00 20.00    +0.160 HD
ATOM     50 H50  LIG A   1      -7.496  -2.210  -1.764  1.00 20.00    +0.064 H 
ATOM     51 H51  LIG A   1      -5.123  -2.603  -1.325  1.00 20.00    +0.063 H 
ATOM     52 H52  LIG A   1      -0.305   1.739  -2.315  1.00 20.00    +0.063 H 
ATOM     53 H53  LIG A   1       2.088   1.647  -1.848  1.00 20.00    +0.064 H 
ATOM     54 H54  LIG A   1       3.824   0.485  -0.804  1.00 20.00    +0.160 HD
ATOM     55 H55  LIG A   1       3.520  -0.672   1.913  1.00 20.00    +0.049 H 
ATOM     56 H56  LIG A   1       3.707  -1.703   0.478  1.00 20.00    +0.049 H 
ATOM     57 H57  LIG A   1       5.839  -0.502  -0.074  1.00 20.00    +0.030 H 
ATOM     58 H58  LIG A   1       5.876  -1.396   1.447  1.00 20.00    +0.030 H 
ATOM     59 H59  LIG A   1       5.388   0.710   2.709  1.00 20.00    +0.043 H 
ATOM     60 H60  LIG A   1       5.425   1.642   1.224  1.00 20.00    +0.043 H 
ATOM     61 H61  LIG A   1       7.672  -0.011   2.187  1.00 20.00    +0.122 HD
ATOM     62 H62  LIG A   1       7.913   0.438  -0.083  1.00 20.00    +0.043 H 
ATOM     63 H63  LIG A   1       7.499   2.129   0.198  1.00 20.00    +0.043 H 
ATOM     64 H64  LIG A   1       9.916   1.799  -0.059  1.00 20.00    +0.028 H 
ATOM     65 H65  LIG A   1       9.493   2.533   1.475  1.00 20.00    +0.028 H 
ATOM     66 H66  LIG A   1      10.005   0.519   2.711  1.00 20.00    +0.028 H 
ATOM     67 H67  LIG A   1      11.330   0.911   1.640  1.00 20.00    +0.028 H 
ATOM     68 H68  LIG A   1      10.291  -0.808  -0.040  1.00 20.00    +0.043 H 
ATOM     69 H69  LIG A   1      11.178  -1.391   1.370  1.00 20.00    +0.043 H 
ATOM     70 H70  LIG A   1       9.196  -1.792   2.502  1.00 20.00    +0.118 HD
ATOM     71 H71  LIG A   1       9.150  -2.551   1.066  1.00 20.00    +0.118 HD
ATOM     72 H72  LIG A   1       1.343  -0.993   1.470  1.00 20.00    +0.064 H 
ATOM     73 H73  LIG A   1      -1.038  -0.902   1.015  1.00 20.00    +0.063 H 
ATOM     74 H74  LIG A   1      -2.429   2.633  -1.013  1.00 20.00    +0.105 H 
ATOM     75 H75  LIG A   1      -6.793   2.043  -1.755  1.00 20.00    +0.068 H 
ATOM     76 H76  LIG A   1       2.321  -1.419  -0.176  1.00 20.00    +0.293 HD
ATOM     77 H77  LIG A   1      -0.960  -2.203  -0.782  1.00 20.00    +0.066 H 
ATOM     78 H78  LIG A   1      -2.786  -0.737   0.058  1.00 20.00    +0.062 H 
ATOM     79 H79  LIG A   1      -2.257   1.522   0.946  1.00 20.00    +0.062 H 
ATOM     80 H80  LIG A   1       0.093   2.339   0.955  1.00 20.00    +0.066 H 
ATOM     81 H81  LIG A   1       2.524   0.664  -0.788  1.00 20.00    +0.293 HD
ENDROOT
TORSDOF 0
