ROOT
ATOM      1 C1   LIG A   1       4.226  -0.940  -1.451  1.00 20.00    -0.060 C 
ATOM      2 C2   LIG A   1       3.229   0.144  -0.993  1.00 20.00    -0.016 C 
ATOM      3 C3   LIG A   1       2.304   0.525  -2.194  1.00 20.00    -0.023 C 
ATOM      4 C4   LIG A   1       0.955  -0.140  -2.178  1.00 20.00    -0.047 A 
ATOM      5 C5   LIG A   1       0.813  -1.499  -2.431  1.00 20.00    -0.059 A 
ATOM      6 C6   LIG A   1      -0.331  -2.157  -1.993  1.00 20.00    -0.057 A 
ATOM      7 C7   LIG A   1      -1.314  -1.470  -1.247  1.00 20.00    -0.023 A 
ATOM      8 C8   LIG A   1      -1.262  -0.061  -1.186  1.00 20.00    +0.027 A 
ATOM      9 C9   LIG A   1      -0.142   0.591  -1.712  1.00 20.00    -0.048 A 
ATOM     10 C10  LIG A   1      -2.263   0.769  -0.450  1.00 20.00    +0.194 C 
ATOM     11 O11  LIG A   1      -3.425   0.412  -0.312  1.00 20.00    -0.289 OA
ATOM     12 C12  LIG A   1      -1.881   2.079   0.115  1.00 20.00    +0.035 A 
ATOM     13 C13  LIG A   1      -2.384   3.222  -0.519  1.00 20.00    -0.050 A 
ATOM     14 C14  LIG A   1      -2.081   4.488  -0.015  1.00 20.00    -0.061 A 
ATOM     15 C15  LIG A   1      -1.298   4.614   1.133  1.00 20.00    -0.061 A 
ATOM     16 C16  LIG A   1      -0.819   3.475   1.784  1.00 20.00    -0.049 A 
ATOM     17 C17  LIG A   1      -1.091   2.202   1.264  1.00 20.00    +0.051 A 
ATOM     18 C18  LIG A   1      -0.671   1.030   2.057  1.00 20.00    +0.261 C 
ATOM     19 O19  LIG A   1      -1.262   0.865   3.125  1.00 20.00    -0.269 OA
ATOM     20 N20  LIG A   1       0.357   0.183   1.596  1.00 20.00    -0.277 NA
ATOM     21 C21  LIG A   1       0.370  -1.143   2.245  1.00 20.00    +0.029 C 
ATOM     22 C22  LIG A   1      -0.332  -2.277   1.473  1.00 20.00    -0.034 C 
ATOM     23 C23  LIG A   1      -1.834  -2.079   1.155  1.00 20.00    -0.034 C 
ATOM     24 C24  LIG A   1      -2.194  -2.331  -0.339  1.00 20.00    +0.082 C 
ATOM     25 C25  LIG A   1      -3.672  -2.264  -0.687  1.00 20.00    +0.310 C 
ATOM     26 O26  LIG A   1      -4.142  -2.176  -1.813  1.00 20.00    -0.252 OA
ATOM     27 O27  LIG A   1      -4.492  -2.422   0.371  1.00 20.00    -0.481 OA
ATOM     28 C28  LIG A   1       1.445   0.694   0.862  1.00 20.00    +0.246 C 
ATOM     29 O29  LIG A   1       1.591   1.902   0.644  1.00 20.00    -0.273 OA
ATOM     30 C30  LIG A   1       2.543  -0.289   0.357  1.00 20.00    +0.088 C 
ATOM     31 N31  LIG A   1       3.605  -0.354   1.398  1.00 20.00    -0.320 NA
ATOM     32 N32  LIG A   1       1.814   0.476   0.916  1.00 20.00    -0.330 NA
ATOM     33 C33  LIG A   1       1.067   0.629  -0.332  1.00 20.00    -0.007 C 
ATOM     34 C34  LIG A   1       0.149  -0.566  -0.591  1.00 20.00    -0.029 C 
ATOM     35 C35  LIG A   1      -1.068  -0.627   0.334  1.00 20.00    -0.007 C 
ATOM     36 N36  LIG A   1      -2.046   0.409   0.008  1.00 20.00    -0.330 NA
ATOM     37 H37  LIG A   1       5.011  -1.105  -0.705  1.00 20.00    +0.023 H 
ATOM     38 H38  LIG A   1       4.728  -0.644  -2.378  1.00 20.00    +0.023 H 
ATOM     39 H39  LIG A   1       3.724  -1.897  -1.626  1.00 20.00    +0.023 H 
ATOM     40 H40  LIG A   1       3.833   1.043  -0.798  1.00 20.00    +0.032 H 
ATOM     41 H41  LIG A   1       2.165   1.615  -2.181  1.00 20.00    +0.032 H 
ATOM     42 H42  LIG A   1       2.795   0.320  -3.154  1.00 20.00    +0.032 H 
ATOM     43 H43  LIG A   1       1.627  -2.075  -2.866  1.00 20.00    +0.063 H 
ATOM     44 H44  LIG A   1      -0.377  -3.240  -2.104  1.00 20.00    +0.063 H 
ATOM     45 H45  LIG A   1      -0.036   1.672  -1.624  1.00 20.00    +0.063 H 
ATOM     46 H46  LIG A   1      -3.021   3.128  -1.397  1.00 20.00    +0.063 H 
ATOM     47 H47  LIG A   1      -2.470   5.376  -0.507  1.00 20.00    +0.062 H 
ATOM     48 H48  LIG A   1      -1.078   5.600   1.535  1.00 20.00    +0.062 H 
ATOM     49 H49  LIG A   1      -0.238   3.579   2.697  1.00 20.00    +0.063 H 
ATOM     50 H50  LIG A   1       1.401  -1.451   2.430  1.00 20.00    +0.050 H 
ATOM     51 H51  LIG A   1      -0.087  -1.080   3.239  1.00 20.00    +0.050 H 
ATOM     52 H52  LIG A   1      -0.247  -3.183   2.089  1.00 20.00    +0.029 H 
ATOM     53 H53  LIG A   1       0.247  -2.504   0.577  1.00 20.00    +0.029 H 
ATOM     54 H54  LIG A   1      -2.186  -1.098   1.479  1.00 20.00    +0.028 H 
ATOM     55 H55  LIG A   1      -2.399  -2.792   1.771  1.00 20.00    +0.028 H 
ATOM     56 H56  LIG A   1      -1.949  -3.388  -0.522  1.00 20.00    +0.047 H 
ATOM     57 H57  LIG A   1      -5.379  -2.250  -0.009  1.00 20.00    +0.296 HD
ATOM     58 H58  LIG A   1       2.120  -1.287   0.232  1.00 20.00    +0.057 H 
ATOM     59 H59  LIG A   1       3.203  -0.489   2.323  1.00 20.00    +0.119 HD
ATOM     60 H60  LIG A   1       4.066   0.558   1.442  1.00 20.00    +0.119 HD
ATOM     61 H61  LIG A   1       2.451  -0.316   0.837  1.00 20.00    +0.118 HD
ATOM     62 H62  LIG A   1       2.397   1.299   1.057  1.00 20.00    +0.118 HD
ATOM     63 H63  LIG A   1       0.494   1.562  -0.302  1.00 20.00    +0.043 H 
ATOM     64 H64  LIG A   1       1.784   0.717  -1.155  1.00 20.00    +0.043 H 
ATOM     65 H65  LIG A   1      -0.188  -0.536  -1.635  1.00 20.00    +0.029 H 
ATOM     66 H66  LIG A   1       0.722  -1.496  -0.486  1.00 20.00    +0.029 H 
ATOM     67 H67  LIG A   1      -1.551  -1.604   0.228  1.00 20.00    +0.043 H 
ATOM     68 H68  LIG A   1      -0.765  -0.527   1.382  1.00 20.00    +0.043 H 
ATOM     69 H69  LIG A   1      -2.829   0.343   0.658  1.00 20.00    +0.118 HD
ATOM     70 H70  LIG A   1      -2.430   0.237  -0.919  1.00 20.00    +0.118 HD
ENDROOT
TORSDOF 0
