ROOT
ATOM      1 C1   LIG A   1       4.635  -0.606  -0.758  1.00 20.00    -0.060 C 
ATOM      2 C2   LIG A   1       3.182  -0.259  -0.746  1.00 20.00    -0.016 C 
ATOM      3 C3   LIG A   1       2.638  -0.806  -2.059  1.00 20.00    -0.023 C 
ATOM      4 C4   LIG A   1       1.153  -0.965  -1.966  1.00 20.00    -0.047 A 
ATOM      5 C5   LIG A   1       0.774  -2.313  -1.856  1.00 20.00    -0.059 A 
ATOM      6 C6   LIG A   1      -0.526  -2.512  -1.468  1.00 20.00    -0.057 A 
ATOM      7 C7   LIG A   1      -1.384  -1.399  -1.209  1.00 20.00    -0.023 A 
ATOM      8 C8   LIG A   1      -0.996  -0.111  -1.342  1.00 20.00    +0.027 A 
ATOM      9 C9   LIG A   1       0.347   0.097  -1.740  1.00 20.00    -0.048 A 
ATOM     10 C10  LIG A   1      -1.788   1.082  -1.214  1.00 20.00    +0.194 C 
ATOM     11 O11  LIG A   1      -2.850   1.094  -1.967  1.00 20.00    -0.289 OA
ATOM     12 C12  LIG A   1      -1.604   2.256  -0.407  1.00 20.00    +0.035 A 
ATOM     13 C13  LIG A   1      -2.037   3.466  -0.993  1.00 20.00    -0.050 A 
ATOM     14 C14  LIG A   1      -1.930   4.672  -0.342  1.00 20.00    -0.061 A 
ATOM     15 C15  LIG A   1      -1.393   4.771   0.923  1.00 20.00    -0.061 A 
ATOM     16 C16  LIG A   1      -0.967   3.597   1.507  1.00 20.00    -0.049 A 
ATOM     17 C17  LIG A   1      -1.076   2.365   0.841  1.00 20.00    +0.051 A 
ATOM     18 C18  LIG A   1      -0.589   1.221   1.557  1.00 20.00    +0.261 C 
ATOM     19 O19  LIG A   1      -1.107   1.040   2.676  1.00 20.00    -0.269 OA
ATOM     20 N20  LIG A   1       0.306   0.138   1.454  1.00 20.00    -0.277 NA
ATOM     21 C21  LIG A   1      -0.150  -1.062   2.257  1.00 20.00    +0.029 C 
ATOM     22 C22  LIG A   1      -1.115  -1.535   1.258  1.00 20.00    -0.034 C 
ATOM     23 C23  LIG A   1      -2.050  -2.501   0.895  1.00 20.00    -0.034 C 
ATOM     24 C24  LIG A   1      -2.612  -1.858  -0.486  1.00 20.00    +0.082 C 
ATOM     25 C25  LIG A   1      -3.675  -0.937  -0.216  1.00 20.00    +0.310 C 
ATOM     26 O26  LIG A   1      -4.772  -1.084  -0.899  1.00 20.00    -0.252 OA
ATOM     27 O27  LIG A   1      -3.733   0.113   0.681  1.00 20.00    -0.481 OA
ATOM     28 C28  LIG A   1       1.538   0.065   0.912  1.00 20.00    +0.246 C 
ATOM     29 O29  LIG A   1       1.928   1.308   0.709  1.00 20.00    -0.273 OA
ATOM     30 C30  LIG A   1       2.559  -0.885   0.522  1.00 20.00    +0.088 C 
ATOM     31 N31  LIG A   1       3.564  -0.924   1.574  1.00 20.00    -0.320 NA
ATOM     32 C32  LIG A   1      -1.808   0.349  -0.057  1.00 20.00    +0.000 C 
ATOM     33 C33  LIG A   1      -0.806  -0.762   0.158  1.00 20.00    +0.000 C 
ATOM     34 Se34 LIG A   1       0.797  -0.090   1.019  1.00 20.00    +0.000 Se
ATOM     35 C35  LIG A   1       2.215   0.275  -0.226  1.00 20.00    +0.000 C 
ATOM     36 H36  LIG A   1       5.044  -0.776   0.271  1.00 20.00    +0.023 H 
ATOM     37 H37  LIG A   1       5.248   0.131  -1.317  1.00 20.00    +0.023 H 
ATOM     38 H38  LIG A   1       4.761  -1.585  -1.264  1.00 20.00    +0.023 H 
ATOM     39 H39  LIG A   1       3.103   0.846  -0.734  1.00 20.00    +0.032 H 
ATOM     40 H40  LIG A   1       2.815  -0.097  -2.882  1.00 20.00    +0.032 H 
ATOM     41 H41  LIG A   1       3.185  -1.728  -2.276  1.00 20.00    +0.032 H 
ATOM     42 H42  LIG A   1       1.444  -3.123  -2.059  1.00 20.00    +0.063 H 
ATOM     43 H43  LIG A   1      -0.892  -3.522  -1.363  1.00 20.00    +0.063 H 
ATOM     44 H44  LIG A   1       0.750   1.087  -1.871  1.00 20.00    +0.063 H 
ATOM     45 H45  LIG A   1      -2.471   3.479  -1.984  1.00 20.00    +0.063 H 
ATOM     46 H46  LIG A   1      -2.276   5.581  -0.829  1.00 20.00    +0.062 H 
ATOM     47 H47  LIG A   1      -1.291   5.697   1.469  1.00 20.00    +0.062 H 
ATOM     48 H48  LIG A   1      -0.529   3.579   2.517  1.00 20.00    +0.063 H 
ATOM     49 H49  LIG A   1       0.684  -1.786   2.336  1.00 20.00    +0.050 H 
ATOM     50 H50  LIG A   1      -0.445  -0.810   3.248  1.00 20.00    +0.050 H 
ATOM     51 H51  LIG A   1      -0.388  -1.603   0.403  1.00 20.00    +0.029 H 
ATOM     52 H52  LIG A   1      -1.758  -0.608   1.254  1.00 20.00    +0.029 H 
ATOM     53 H53  LIG A   1      -2.964  -2.554   1.495  1.00 20.00    +0.028 H 
ATOM     54 H54  LIG A   1      -1.731  -3.534   0.648  1.00 20.00    +0.028 H 
ATOM     55 H55  LIG A   1      -3.001  -2.761  -0.985  1.00 20.00    +0.047 H 
ATOM     56 H56  LIG A   1      -4.533   0.390   1.200  1.00 20.00    +0.296 HD
ATOM     57 H57  LIG A   1       2.138  -1.848   0.265  1.00 20.00    +0.057 H 
ATOM     58 H58  LIG A   1       3.415  -1.823   2.092  1.00 20.00    +0.119 HD
ATOM     59 H59  LIG A   1       3.424  -0.161   2.270  1.00 20.00    +0.119 HD
ATOM     60 H60  LIG A   1      -2.798   0.137   0.393  1.00 20.00    +0.000 H 
ATOM     61 H61  LIG A   1      -1.950   0.487  -1.137  1.00 20.00    +0.000 H 
ATOM     62 H62  LIG A   1      -1.435   1.258   0.454  1.00 20.00    +0.000 H 
ATOM     63 H63  LIG A   1      -1.298  -1.496   0.849  1.00 20.00    +0.000 H 
ATOM     64 H64  LIG A   1      -0.514  -1.258  -0.798  1.00 20.00    +0.000 H 
ATOM     65 H65  LIG A   1       2.364   1.381  -0.271  1.00 20.00    +0.000 H 
ATOM     66 H66  LIG A   1       2.046  -0.122  -1.237  1.00 20.00    +0.000 H 
ATOM     67 H67  LIG A   1       3.188  -0.160   0.119  1.00 20.00    +0.000 H 
ENDROOT
TORSDOF 0
