ROOT
ATOM      1 C1   LIG A   1      -7.742   2.566  -0.083  1.00 20.00    -0.060 C 
ATOM      2 C2   LIG A   1      -6.685   1.570  -0.592  1.00 20.00    -0.016 C 
ATOM      3 C3   LIG A   1      -5.284   2.006  -0.098  1.00 20.00    -0.023 C 
ATOM      4 C4   LIG A   1      -4.131   1.616  -1.012  1.00 20.00    -0.046 C 
ATOM      5 C5   LIG A   1      -2.813   1.741  -0.725  1.00 20.00    -0.059 C 
ATOM      6 C6   LIG A   1      -2.347   1.412   0.616  1.00 20.00    -0.054 C 
ATOM      7 C7   LIG A   1      -1.364   0.519   0.891  1.00 20.00    +0.009 C 
ATOM      8 C8   LIG A   1      -0.396   0.126  -0.100  1.00 20.00    +0.131 A 
ATOM      9 C9   LIG A   1      -0.524  -0.564  -1.299  1.00 20.00    -0.015 A 
ATOM     10 C10  LIG A   1       0.770  -0.738  -1.847  1.00 20.00    -0.015 A 
ATOM     11 C11  LIG A   1       1.650  -0.163  -0.958  1.00 20.00    +0.134 A 
ATOM     12 C12  LIG A   1       3.101  -0.012  -0.897  1.00 20.00    +0.017 A 
ATOM     13 C13  LIG A   1       3.924  -0.585  -1.873  1.00 20.00    -0.049 A 
ATOM     14 C14  LIG A   1       5.320  -0.450  -1.814  1.00 20.00    -0.038 A 
ATOM     15 C15  LIG A   1       5.939   0.237  -0.766  1.00 20.00    +0.034 A 
ATOM     16 N16  LIG A   1       7.319   0.467  -0.689  1.00 20.00    -0.385 NA
ATOM     17 C17  LIG A   1       8.234  -0.436  -1.388  1.00 20.00    +0.022 C 
ATOM     18 C18  LIG A   1       9.684  -0.022  -1.141  1.00 20.00    +0.022 C 
ATOM     19 C19  LIG A   1      10.106  -0.364   0.270  1.00 20.00    +0.092 C 
ATOM     20 N20  LIG A   1      10.654  -1.496   0.567  1.00 20.00    -0.289 NA
ATOM     21 N21  LIG A   1       9.897   0.535   1.270  1.00 20.00    -0.388 NA
ATOM     22 C22  LIG A   1       5.109   0.847   0.182  1.00 20.00    -0.038 A 
ATOM     23 C23  LIG A   1       3.716   0.715   0.129  1.00 20.00    -0.049 A 
ATOM     24 O24  LIG A   1       0.949   0.352   0.090  1.00 20.00    -0.456 OA
ATOM     25 C25  LIG A   1      -1.387  -0.154   2.261  1.00 20.00    +0.085 C 
ATOM     26 C26  LIG A   1       0.001  -0.099   2.888  1.00 20.00    +0.311 C 
ATOM     27 O27  LIG A   1       0.547   0.907   3.319  1.00 20.00    -0.252 OA
ATOM     28 O28  LIG A   1       0.645  -1.281   2.926  1.00 20.00    -0.481 OA
ATOM     29 C29  LIG A   1      -1.971  -1.592   2.149  1.00 20.00    -0.034 C 
ATOM     30 C30  LIG A   1      -3.475  -1.636   1.795  1.00 20.00    -0.034 C 
ATOM     31 C31  LIG A   1      -3.834  -1.983   0.323  1.00 20.00    +0.025 C 
ATOM     32 N32  LIG A   1      -4.806  -1.049  -0.286  1.00 20.00    -0.318 NA
ATOM     33 C33  LIG A   1      -4.620  -0.684  -1.615  1.00 20.00    +0.007 C 
ATOM     34 C34  LIG A   1      -4.398   0.582  -2.009  1.00 20.00    -0.043 C 
ATOM     35 C35  LIG A   1      -6.014  -0.841   0.390  1.00 20.00    +0.243 C 
ATOM     36 O36  LIG A   1      -6.284  -1.466   1.425  1.00 20.00    -0.273 OA
ATOM     37 C37  LIG A   1      -7.088   0.131  -0.175  1.00 20.00    +0.088 C 
ATOM     38 N38  LIG A   1      -7.892  -0.536  -1.228  1.00 20.00    -0.320 NA
ATOM     39 N39  LIG A   1       3.220   1.256   0.279  1.00 20.00    -0.287 NA
ATOM     40 C40  LIG A   1       3.380  -0.029   0.236  1.00 20.00    +0.110 C 
ATOM     41 N41  LIG A   1       4.572  -0.518  -0.201  1.00 20.00    -0.386 NA
ATOM     42 C42  LIG A   1       2.269  -0.979   0.681  1.00 20.00    +0.075 C 
ATOM     43 N43  LIG A   1       1.018  -0.520   0.123  1.00 20.00    -0.348 NA
ATOM     44 C44  LIG A   1      -0.194  -0.931   0.633  1.00 20.00    +0.237 C 
ATOM     45 O45  LIG A   1      -0.299  -1.594   1.659  1.00 20.00    -0.273 OA
ATOM     46 C46  LIG A   1      -1.390  -0.539  -0.249  1.00 20.00    +0.087 C 
ATOM     47 C47  LIG A   1      -2.683  -0.319   0.528  1.00 20.00    -0.027 C 
ATOM     48 C48  LIG A   1      -3.310   0.925  -0.088  1.00 20.00    -0.039 C 
ATOM     49 C49  LIG A   1      -2.485   1.199  -1.332  1.00 20.00    -0.004 C 
ATOM     50 N50  LIG A   1      -1.138   0.739  -0.972  1.00 20.00    -0.306 NA
ATOM     51 H51  LIG A   1      -7.758   2.601   1.012  1.00 20.00    +0.023 H 
ATOM     52 H52  LIG A   1      -7.533   3.576  -0.450  1.00 20.00    +0.023 H 
ATOM     53 H53  LIG A   1      -8.743   2.289  -0.433  1.00 20.00    +0.023 H 
ATOM     54 H54  LIG A   1      -6.720   1.658  -1.687  1.00 20.00    +0.032 H 
ATOM     55 H55  LIG A   1      -5.259   3.103  -0.042  1.00 20.00    +0.032 H 
ATOM     56 H56  LIG A   1      -5.134   1.649   0.926  1.00 20.00    +0.032 H 
ATOM     57 H57  LIG A   1      -2.102   1.501  -1.513  1.00 20.00    +0.063 H 
ATOM     58 H58  LIG A   1      -3.019   1.698   1.423  1.00 20.00    +0.063 H 
ATOM     59 H59  LIG A   1      -1.453  -0.909  -1.729  1.00 20.00    +0.066 H 
ATOM     60 H60  LIG A   1       1.024  -1.234  -2.772  1.00 20.00    +0.066 H 
ATOM     61 H61  LIG A   1       3.497  -1.144  -2.701  1.00 20.00    +0.063 H 
ATOM     62 H62  LIG A   1       5.903  -0.896  -2.613  1.00 20.00    +0.064 H 
ATOM     63 H63  LIG A   1       7.599   0.603   0.284  1.00 20.00    +0.160 HD
ATOM     64 H64  LIG A   1       8.056  -0.381  -2.468  1.00 20.00    +0.049 H 
ATOM     65 H65  LIG A   1       8.071  -1.470  -1.059  1.00 20.00    +0.049 H 
ATOM     66 H66  LIG A   1       9.819   1.052  -1.310  1.00 20.00    +0.037 H 
ATOM     67 H67  LIG A   1      10.341  -0.555  -1.837  1.00 20.00    +0.037 H 
ATOM     68 H68  LIG A   1      10.750  -2.089  -0.264  1.00 20.00    +0.189 HD
ATOM     69 H69  LIG A   1      10.422   0.292   2.106  1.00 20.00    +0.157 HD
ATOM     70 H70  LIG A   1       9.975   1.516   1.024  1.00 20.00    +0.157 HD
ATOM     71 H71  LIG A   1       5.543   1.440   0.985  1.00 20.00    +0.064 H 
ATOM     72 H72  LIG A   1       3.117   1.201   0.897  1.00 20.00    +0.063 H 
ATOM     73 H73  LIG A   1      -2.028   0.398   2.964  1.00 20.00    +0.047 H 
ATOM     74 H74  LIG A   1       1.537  -1.048   3.260  1.00 20.00    +0.296 HD
ATOM     75 H75  LIG A   1      -1.392  -2.209   1.450  1.00 20.00    +0.028 H 
ATOM     76 H76  LIG A   1      -1.855  -2.070   3.132  1.00 20.00    +0.028 H 
ATOM     77 H77  LIG A   1      -3.946  -0.699   2.116  1.00 20.00    +0.029 H 
ATOM     78 H78  LIG A   1      -3.923  -2.423   2.418  1.00 20.00    +0.029 H 
ATOM     79 H79  LIG A   1      -2.932  -2.007  -0.295  1.00 20.00    +0.050 H 
ATOM     80 H80  LIG A   1      -4.284  -2.983   0.287  1.00 20.00    +0.050 H 
ATOM     81 H81  LIG A   1      -4.575  -1.505  -2.326  1.00 20.00    +0.082 H 
ATOM     82 H82  LIG A   1      -4.222   0.824  -3.053  1.00 20.00    +0.064 H 
ATOM     83 H83  LIG A   1      -7.781   0.242   0.673  1.00 20.00    +0.057 H 
ATOM     84 H84  LIG A   1      -7.281  -0.769  -2.009  1.00 20.00    +0.119 HD
ATOM     85 H85  LIG A   1      -8.226  -1.426  -0.854  1.00 20.00    +0.119 HD
ATOM     86 H86  LIG A   1       2.272   1.455   0.627  1.00 20.00    +0.189 HD
ATOM     87 H87  LIG A   1       5.288   0.202  -0.230  1.00 20.00    +0.157 HD
ATOM     88 H88  LIG A   1       4.892  -1.391   0.199  1.00 20.00    +0.157 HD
ATOM     89 H89  LIG A   1       2.462  -1.993   0.318  1.00 20.00    +0.058 H 
ATOM     90 H90  LIG A   1       2.215  -0.987   1.774  1.00 20.00    +0.058 H 
ATOM     91 H91  LIG A   1       1.005  -0.117  -0.812  1.00 20.00    +0.163 HD
ATOM     92 H92  LIG A   1      -1.522  -1.340  -0.987  1.00 20.00    +0.057 H 
ATOM     93 H93  LIG A   1      -3.348  -1.182   0.412  1.00 20.00    +0.029 H 
ATOM     94 H94  LIG A   1      -2.521  -0.166   1.600  1.00 20.00    +0.029 H 
ATOM     95 H95  LIG A   1      -3.231   1.763   0.615  1.00 20.00    +0.028 H 
ATOM     96 H96  LIG A   1      -4.369   0.780  -0.320  1.00 20.00    +0.028 H 
ATOM     97 H97  LIG A   1      -2.859   0.624  -2.186  1.00 20.00    +0.043 H 
ATOM     98 H98  LIG A   1      -2.489   2.258  -1.606  1.00 20.00    +0.043 H 
ATOM     99 H99  LIG A   1      -0.758   1.405  -0.293  1.00 20.00    +0.123 HD
ENDROOT
TORSDOF 0
