MODEL 1
REMARK VINA RESULT:   -11.634      0.000      0.000
REMARK INTER + INTRA:         -11.634
REMARK INTER:                 -11.634
REMARK INTRA:                   0.000
REMARK UNBOUND:                 0.000
ROOT
ATOM      1 C1   LIG A   1      20.183  29.778  13.271  1.00 20.00    -0.060 C 
ATOM      2 C2   LIG A   1      20.567  28.331  13.645  1.00 20.00    -0.016 C 
ATOM      3 C3   LIG A   1      19.559  27.404  12.909  1.00 20.00    -0.023 C 
ATOM      4 C4   LIG A   1      19.519  25.939  13.265  1.00 20.00    -0.046 C 
ATOM      5 C5   LIG A   1      19.601  24.898  12.404  1.00 20.00    -0.059 C 
ATOM      6 C6   LIG A   1      20.726  24.859  11.471  1.00 20.00    -0.054 C 
ATOM      7 C7   LIG A   1      21.517  23.778  11.262  1.00 20.00    +0.009 C 
ATOM      8 C8   LIG A   1      21.046  22.450  11.562  1.00 20.00    +0.131 A 
ATOM      9 C9   LIG A   1      20.845  21.802  12.774  1.00 20.00    -0.015 A 
ATOM     10 C10  LIG A   1      20.405  20.485  12.498  1.00 20.00    -0.015 A 
ATOM     11 C11  LIG A   1      20.366  20.368  11.126  1.00 20.00    +0.134 A 
ATOM     12 C12  LIG A   1      20.007  19.296  10.201  1.00 20.00    +0.017 A 
ATOM     13 C13  LIG A   1      19.572  18.055  10.681  1.00 20.00    -0.049 A 
ATOM     14 C14  LIG A   1      19.218  17.023   9.802  1.00 20.00    -0.038 A 
ATOM     15 C15  LIG A   1      19.269  17.204   8.416  1.00 20.00    +0.034 A 
ATOM     16 N16  LIG A   1      18.976  16.171   7.509  1.00 20.00    -0.385 NA
ATOM     17 C17  LIG A   1      17.747  15.398   7.759  1.00 20.00    +0.022 C 
ATOM     18 C18  LIG A   1      17.742  14.140   6.892  1.00 20.00    +0.022 C 
ATOM     19 C19  LIG A   1      18.712  13.118   7.447  1.00 20.00    +0.092 C 
ATOM     20 N20  LIG A   1      18.314  11.999   7.957  1.00 20.00    -0.289 NA
ATOM     21 N21  LIG A   1      20.044  13.395   7.428  1.00 20.00    -0.388 NA
ATOM     22 C22  LIG A   1      19.747  18.429   7.938  1.00 20.00    -0.038 A 
ATOM     23 C23  LIG A   1      20.096  19.465   8.814  1.00 20.00    -0.049 A 
ATOM     24 O24  LIG A   1      20.763  21.545  10.566  1.00 20.00    -0.456 OA
ATOM     25 C25  LIG A   1      22.938  24.013  10.764  1.00 20.00    +0.085 C 
ATOM     26 C26  LIG A   1      23.107  23.264   9.448  1.00 20.00    +0.311 C 
ATOM     27 O27  LIG A   1      22.584  23.562   8.384  1.00 20.00    -0.252 OA
ATOM     28 O28  LIG A   1      23.889  22.168   9.522  1.00 20.00    -0.481 OA
ATOM     29 C29  LIG A   1      23.999  23.640  11.833  1.00 20.00    -0.034 C 
ATOM     30 C30  LIG A   1      24.214  24.642  12.990  1.00 20.00    -0.034 C 
ATOM     31 C31  LIG A   1      23.244  24.571  14.195  1.00 20.00    +0.025 C 
ATOM     32 N32  LIG A   1      22.189  25.601  14.153  1.00 20.00    -0.318 NA
ATOM     33 C33  LIG A   1      21.099  25.372  15.013  1.00 20.00    +0.007 C 
ATOM     34 C34  LIG A   1      19.824  25.605  14.649  1.00 20.00    -0.043 C 
ATOM     35 C35  LIG A   1      22.705  26.911  14.221  1.00 20.00    +0.243 C 
ATOM     36 O36  LIG A   1      23.733  27.179  14.855  1.00 20.00    -0.273 OA
ATOM     37 C37  LIG A   1      22.033  27.980  13.296  1.00 20.00    +0.088 C 
ATOM     38 N38  LIG A   1      22.905  29.190  13.352  1.00 20.00    -0.320 NA
ATOM     39 C39  LIG A   1      22.617  24.368  16.110  1.00 20.00    -0.056 C 
ATOM     40 C40  LIG A   1      21.585  24.999  15.189  1.00 20.00    -0.002 C 
ATOM     41 S41  LIG A   1      20.653  23.739  14.272  1.00 20.00    -0.087 SA
ATOM     42 C42  LIG A   1      21.777  23.422  12.937  1.00 20.00    +0.205 C 
ATOM     43 O43  LIG A   1      22.874  23.968  12.876  1.00 20.00    -0.285 OA
ATOM     44 C44  LIG A   1      21.309  22.367  11.911  1.00 20.00    +0.074 C 
ATOM     45 N45  LIG A   1      21.224  21.031  12.541  1.00 20.00    -0.321 NA
ATOM     46 C46  LIG A   1      19.981  22.753  11.242  1.00 20.00    -0.028 C 
ATOM     47 C47  LIG A   1      19.762  22.140   9.854  1.00 20.00    -0.034 C 
ATOM     48 C48  LIG A   1      19.773  20.611   9.818  1.00 20.00    +0.018 C 
ATOM     49 N49  LIG A   1      19.251  20.126   8.546  1.00 20.00    -0.357 NA
ATOM     50 C50  LIG A   1      19.972  20.183   7.403  1.00 20.00    +0.185 C 
ATOM     51 N51  LIG A   1      21.197  20.543   7.314  1.00 20.00    -0.270 NA
ATOM     52 N52  LIG A   1      19.232  19.797   6.344  1.00 20.00    -0.370 NA
ATOM     53 H53  LIG A   1      20.348  29.971  12.205  1.00 20.00    +0.023 H 
ATOM     54 H54  LIG A   1      19.126  29.969  13.488  1.00 20.00    +0.023 H 
ATOM     55 H55  LIG A   1      20.755  30.509  13.852  1.00 20.00    +0.023 H 
ATOM     56 H56  LIG A   1      20.424  28.247  14.730  1.00 20.00    +0.032 H 
ATOM     57 H57  LIG A   1      18.546  27.779  13.117  1.00 20.00    +0.032 H 
ATOM     58 H58  LIG A   1      19.687  27.528  11.826  1.00 20.00    +0.032 H 
ATOM     59 H59  LIG A   1      19.358  23.919  12.813  1.00 20.00    +0.063 H 
ATOM     60 H60  LIG A   1      21.104  25.831  11.164  1.00 20.00    +0.063 H 
ATOM     61 H61  LIG A   1      20.990  22.236  13.752  1.00 20.00    +0.066 H 
ATOM     62 H62  LIG A   1      20.149  19.720  13.216  1.00 20.00    +0.066 H 
ATOM     63 H63  LIG A   1      19.510  17.863  11.748  1.00 20.00    +0.063 H 
ATOM     64 H64  LIG A   1      18.929  16.067  10.228  1.00 20.00    +0.064 H 
ATOM     65 H65  LIG A   1      18.972  16.535   6.554  1.00 20.00    +0.160 HD
ATOM     66 H66  LIG A   1      16.883  16.021   7.498  1.00 20.00    +0.049 H 
ATOM     67 H67  LIG A   1      17.644  15.104   8.808  1.00 20.00    +0.049 H 
ATOM     68 H68  LIG A   1      18.028  14.367   5.859  1.00 20.00    +0.037 H 
ATOM     69 H69  LIG A   1      16.734  13.709   6.874  1.00 20.00    +0.037 H 
ATOM     70 H70  LIG A   1      17.295  11.903   7.903  1.00 20.00    +0.189 HD
ATOM     71 H71  LIG A   1      20.262  14.389   7.527  1.00 20.00    +0.157 HD
ATOM     72 H72  LIG A   1      20.562  12.809   8.073  1.00 20.00    +0.157 HD
ATOM     73 H73  LIG A   1      19.846  18.602   6.869  1.00 20.00    +0.064 H 
ATOM     74 H74  LIG A   1      20.440  20.409   8.396  1.00 20.00    +0.063 H 
ATOM     75 H75  LIG A   1      23.105  25.070  10.507  1.00 20.00    +0.047 H 
ATOM     76 H76  LIG A   1      23.810  21.766   8.630  1.00 20.00    +0.296 HD
ATOM     77 H77  LIG A   1      23.817  22.638  12.242  1.00 20.00    +0.028 H 
ATOM     78 H78  LIG A   1      24.969  23.570  11.319  1.00 20.00    +0.028 H 
ATOM     79 H79  LIG A   1      24.288  25.656  12.580  1.00 20.00    +0.029 H 
ATOM     80 H80  LIG A   1      25.210  24.413  13.395  1.00 20.00    +0.029 H 
ATOM     81 H81  LIG A   1      22.781  23.581  14.245  1.00 20.00    +0.050 H 
ATOM     82 H82  LIG A   1      23.816  24.709  15.123  1.00 20.00    +0.050 H 
ATOM     83 H83  LIG A   1      21.342  24.984  15.999  1.00 20.00    +0.082 H 
ATOM     84 H84  LIG A   1      18.998  25.461  15.338  1.00 20.00    +0.064 H 
ATOM     85 H85  LIG A   1      22.102  27.610  12.268  1.00 20.00    +0.057 H 
ATOM     86 H86  LIG A   1      22.948  29.486  14.331  1.00 20.00    +0.119 HD
ATOM     87 H87  LIG A   1      23.865  28.880  13.170  1.00 20.00    +0.119 HD
ATOM     88 H88  LIG A   1      23.150  25.152  16.658  1.00 20.00    +0.024 H 
ATOM     89 H89  LIG A   1      22.143  23.714  16.851  1.00 20.00    +0.024 H 
ATOM     90 H90  LIG A   1      23.361  23.785  15.557  1.00 20.00    +0.024 H 
ATOM     91 H91  LIG A   1      20.866  25.564  15.794  1.00 20.00    +0.038 H 
ATOM     92 H92  LIG A   1      22.051  25.715  14.507  1.00 20.00    +0.038 H 
ATOM     93 H93  LIG A   1      22.091  22.325  11.143  1.00 20.00    +0.055 H 
ATOM     94 H94  LIG A   1      22.148  20.775  12.895  1.00 20.00    +0.119 HD
ATOM     95 H95  LIG A   1      20.617  21.089  13.362  1.00 20.00    +0.119 HD
ATOM     96 H96  LIG A   1      19.138  22.478  11.887  1.00 20.00    +0.029 H 
ATOM     97 H97  LIG A   1      19.936  23.844  11.129  1.00 20.00    +0.029 H 
ATOM     98 H98  LIG A   1      18.799  22.507   9.472  1.00 20.00    +0.029 H 
ATOM     99 H99  LIG A   1      20.526  22.529   9.169  1.00 20.00    +0.029 H 
ATOM    100 H100 LIG A   1      19.133  20.215  10.613  1.00 20.00    +0.049 H 
ATOM    101 H101 LIG A   1      20.781  20.217   9.980  1.00 20.00    +0.049 H 
ATOM    102 H102 LIG A   1      18.269  20.334   8.412  1.00 20.00    +0.163 HD
ATOM    103 H103 LIG A   1      21.494  20.527   6.338  1.00 20.00    +0.191 HD
ATOM    104 H104 LIG A   1      19.778  19.583   5.520  1.00 20.00    +0.159 HD
ATOM    105 H105 LIG A   1      18.638  19.008   6.577  1.00 20.00    +0.159 HD
ENDROOT
TORSDOF 0
                                                                                                            
ENDMDL
MODEL 2
REMARK VINA RESULT:   -11.571      4.607     10.209
REMARK INTER + INTRA:         -11.571
REMARK INTER:                 -11.571
REMARK INTRA:                   0.000
REMARK UNBOUND:                 0.000
ROOT
ATOM      1 C1   LIG A   1      22.915  11.370   9.946  1.00 20.00    -0.060 C 
ATOM      2 C2   LIG A   1      21.941  12.531  10.239  1.00 20.00    -0.016 C 
ATOM      3 C3   LIG A   1      22.759  13.842  10.074  1.00 20.00    -0.023 C 
ATOM      4 C4   LIG A   1      22.150  15.145  10.530  1.00 20.00    -0.046 C 
ATOM      5 C5   LIG A   1      22.036  16.280   9.802  1.00 20.00    -0.059 C 
ATOM      6 C6   LIG A   1      21.399  16.198   8.488  1.00 20.00    -0.054 C 
ATOM      7 C7   LIG A   1      20.419  17.027   8.053  1.00 20.00    +0.009 C 
ATOM      8 C8   LIG A   1      20.250  18.336   8.630  1.00 20.00    +0.131 A 
ATOM      9 C9   LIG A   1      19.748  18.737   9.862  1.00 20.00    -0.015 A 
ATOM     10 C10  LIG A   1      19.770  20.151   9.904  1.00 20.00    -0.015 A 
ATOM     11 C11  LIG A   1      20.271  20.569   8.691  1.00 20.00    +0.134 A 
ATOM     12 C12  LIG A   1      20.549  21.872   8.094  1.00 20.00    +0.017 A 
ATOM     13 C13  LIG A   1      20.314  23.051   8.810  1.00 20.00    -0.049 A 
ATOM     14 C14  LIG A   1      20.584  24.306   8.249  1.00 20.00    -0.038 A 
ATOM     15 C15  LIG A   1      21.117  24.423   6.962  1.00 20.00    +0.034 A 
ATOM     16 N16  LIG A   1      21.345  25.666   6.349  1.00 20.00    -0.385 NA
ATOM     17 C17  LIG A   1      22.041  26.685   7.155  1.00 20.00    +0.022 C 
ATOM     18 C18  LIG A   1      21.928  28.049   6.475  1.00 20.00    +0.022 C 
ATOM     19 C19  LIG A   1      20.531  28.606   6.651  1.00 20.00    +0.092 C 
ATOM     20 N20  LIG A   1      20.294  29.654   7.369  1.00 20.00    -0.289 NA
ATOM     21 N21  LIG A   1      19.488  27.972   6.049  1.00 20.00    -0.388 NA
ATOM     22 C22  LIG A   1      21.310  23.246   6.229  1.00 20.00    -0.038 A 
ATOM     23 C23  LIG A   1      21.046  21.989   6.790  1.00 20.00    -0.049 A 
ATOM     24 O24  LIG A   1      20.548  19.477   7.923  1.00 20.00    -0.456 OA
ATOM     25 C25  LIG A   1      19.462  16.510   6.986  1.00 20.00    +0.085 C 
ATOM     26 C26  LIG A   1      19.544  17.447   5.786  1.00 20.00    +0.311 C 
ATOM     27 O27  LIG A   1      20.492  17.548   5.021  1.00 20.00    -0.252 OA
ATOM     28 O28  LIG A   1      18.461  18.232   5.612  1.00 20.00    -0.481 OA
ATOM     29 C29  LIG A   1      18.023  16.325   7.534  1.00 20.00    -0.034 C 
ATOM     30 C30  LIG A   1      17.758  15.077   8.408  1.00 20.00    -0.034 C 
ATOM     31 C31  LIG A   1      18.122  15.160   9.911  1.00 20.00    +0.025 C 
ATOM     32 N32  LIG A   1      19.405  14.507  10.235  1.00 20.00    -0.318 NA
ATOM     33 C33  LIG A   1      19.944  14.846  11.489  1.00 20.00    +0.007 C 
ATOM     34 C34  LIG A   1      21.258  15.071  11.679  1.00 20.00    -0.043 C 
ATOM     35 C35  LIG A   1      19.392  13.122   9.972  1.00 20.00    +0.243 C 
ATOM     36 O36  LIG A   1      18.365  12.442  10.090  1.00 20.00    -0.273 OA
ATOM     37 C37  LIG A   1      20.686  12.516   9.334  1.00 20.00    +0.088 C 
ATOM     38 N38  LIG A   1      20.337  11.126   8.919  1.00 20.00    -0.320 NA
ATOM     39 C39  LIG A   1      17.881  15.113  11.921  1.00 20.00    -0.056 C 
ATOM     40 C40  LIG A   1      19.330  15.018  11.473  1.00 20.00    -0.002 C 
ATOM     41 S41  LIG A   1      20.034  16.658  11.140  1.00 20.00    -0.087 SA
ATOM     42 C42  LIG A   1      19.450  16.923   9.486  1.00 20.00    +0.205 C 
ATOM     43 O43  LIG A   1      18.719  16.113   8.924  1.00 20.00    -0.285 OA
ATOM     44 C44  LIG A   1      19.865  18.263   8.841  1.00 20.00    +0.074 C 
ATOM     45 N45  LIG A   1      19.239  19.398   9.554  1.00 20.00    -0.321 NA
ATOM     46 C46  LIG A   1      21.391  18.427   8.766  1.00 20.00    -0.028 C 
ATOM     47 C47  LIG A   1      21.881  19.362   7.654  1.00 20.00    -0.034 C 
ATOM     48 C48  LIG A   1      21.352  20.794   7.740  1.00 20.00    +0.018 C 
ATOM     49 N49  LIG A   1      22.103  21.671   6.850  1.00 20.00    -0.357 NA
ATOM     50 C50  LIG A   1      21.926  21.659   5.510  1.00 20.00    +0.185 C 
ATOM     51 N51  LIG A   1      21.030  20.994   4.883  1.00 20.00    -0.270 NA
ATOM     52 N52  LIG A   1      22.820  22.460   4.896  1.00 20.00    -0.370 NA
ATOM     53 H53  LIG A   1      23.235  11.373   8.898  1.00 20.00    +0.023 H 
ATOM     54 H54  LIG A   1      23.811  11.446  10.572  1.00 20.00    +0.023 H 
ATOM     55 H55  LIG A   1      22.462  10.398  10.171  1.00 20.00    +0.023 H 
ATOM     56 H56  LIG A   1      21.633  12.415  11.286  1.00 20.00    +0.032 H 
ATOM     57 H57  LIG A   1      23.684  13.736  10.659  1.00 20.00    +0.032 H 
ATOM     58 H58  LIG A   1      23.093  13.925   9.032  1.00 20.00    +0.032 H 
ATOM     59 H59  LIG A   1      21.752  17.175  10.353  1.00 20.00    +0.063 H 
ATOM     60 H60  LIG A   1      21.527  15.249   7.973  1.00 20.00    +0.063 H 
ATOM     61 H61  LIG A   1      19.413  18.078  10.649  1.00 20.00    +0.066 H 
ATOM     62 H62  LIG A   1      19.458  20.783  10.722  1.00 20.00    +0.066 H 
ATOM     63 H63  LIG A   1      19.904  23.017   9.816  1.00 20.00    +0.063 H 
ATOM     64 H64  LIG A   1      20.341  25.189   8.833  1.00 20.00    +0.064 H 
ATOM     65 H65  LIG A   1      21.829  25.535   5.459  1.00 20.00    +0.160 HD
ATOM     66 H66  LIG A   1      23.098  26.405   7.233  1.00 20.00    +0.049 H 
ATOM     67 H67  LIG A   1      21.638  26.762   8.170  1.00 20.00    +0.049 H 
ATOM     68 H68  LIG A   1      22.144  27.978   5.404  1.00 20.00    +0.037 H 
ATOM     69 H69  LIG A   1      22.652  28.742   6.919  1.00 20.00    +0.037 H 
ATOM     70 H70  LIG A   1      21.157  30.046   7.758  1.00 20.00    +0.189 HD
ATOM     71 H71  LIG A   1      19.610  26.960   5.967  1.00 20.00    +0.157 HD
ATOM     72 H72  LIG A   1      18.598  28.232   6.461  1.00 20.00    +0.157 HD
ATOM     73 H73  LIG A   1      21.681  23.288   5.208  1.00 20.00    +0.064 H 
ATOM     74 H74  LIG A   1      21.234  21.100   6.191  1.00 20.00    +0.063 H 
ATOM     75 H75  LIG A   1      19.782  15.532   6.598  1.00 20.00    +0.047 H 
ATOM     76 H76  LIG A   1      18.719  18.822   4.872  1.00 20.00    +0.296 HD
ATOM     77 H77  LIG A   1      17.678  17.224   8.061  1.00 20.00    +0.028 H 
ATOM     78 H78  LIG A   1      17.354  16.225   6.666  1.00 20.00    +0.028 H 
ATOM     79 H79  LIG A   1      18.201  14.199   7.924  1.00 20.00    +0.029 H 
ATOM     80 H80  LIG A   1      16.671  14.920   8.372  1.00 20.00    +0.029 H 
ATOM     81 H81  LIG A   1      18.157  16.205  10.230  1.00 20.00    +0.050 H 
ATOM     82 H82  LIG A   1      17.333  14.667  10.496  1.00 20.00    +0.050 H 
ATOM     83 H83  LIG A   1      19.234  14.925  12.309  1.00 20.00    +0.082 H 
ATOM     84 H84  LIG A   1      21.663  15.292  12.661  1.00 20.00    +0.064 H 
ATOM     85 H85  LIG A   1      20.879  13.065   8.406  1.00 20.00    +0.057 H 
ATOM     86 H86  LIG A   1      20.040  10.625   9.761  1.00 20.00    +0.119 HD
ATOM     87 H87  LIG A   1      19.470  11.180   8.375  1.00 20.00    +0.119 HD
ATOM     88 H88  LIG A   1      17.492  14.111  12.128  1.00 20.00    +0.024 H 
ATOM     89 H89  LIG A   1      17.786  15.699  12.843  1.00 20.00    +0.024 H 
ATOM     90 H90  LIG A   1      17.242  15.565  11.155  1.00 20.00    +0.024 H 
ATOM     91 H91  LIG A   1      19.922  14.564  12.277  1.00 20.00    +0.038 H 
ATOM     92 H92  LIG A   1      19.432  14.363  10.602  1.00 20.00    +0.038 H 
ATOM     93 H93  LIG A   1      19.462  18.246   7.821  1.00 20.00    +0.055 H 
ATOM     94 H94  LIG A   1      18.223  19.298   9.505  1.00 20.00    +0.119 HD
ATOM     95 H95  LIG A   1      19.478  19.340  10.546  1.00 20.00    +0.119 HD
ATOM     96 H96  LIG A   1      21.782  18.783   9.726  1.00 20.00    +0.029 H 
ATOM     97 H97  LIG A   1      21.853  17.445   8.595  1.00 20.00    +0.029 H 
ATOM     98 H98  LIG A   1      22.979  19.376   7.685  1.00 20.00    +0.029 H 
ATOM     99 H99  LIG A   1      21.612  18.929   6.682  1.00 20.00    +0.029 H 
ATOM    100 H100 LIG A   1      21.469  21.174   8.760  1.00 20.00    +0.049 H 
ATOM    101 H101 LIG A   1      20.286  20.840   7.493  1.00 20.00    +0.049 H 
ATOM    102 H102 LIG A   1      23.070  21.785   7.126  1.00 20.00    +0.163 HD
ATOM    103 H103 LIG A   1      21.131  21.135   3.879  1.00 20.00    +0.191 HD
ATOM    104 H104 LIG A   1      22.581  22.682   3.939  1.00 20.00    +0.159 HD
ATOM    105 H105 LIG A   1      22.970  23.316   5.421  1.00 20.00    +0.159 HD
ENDROOT
TORSDOF 0
                                                                                                            
ENDMDL
MODEL 3
REMARK VINA RESULT:   -11.287      3.083      5.186
REMARK INTER + INTRA:         -11.287
REMARK INTER:                 -11.287
REMARK INTRA:                   0.000
REMARK UNBOUND:                 0.000
ROOT
ATOM      1 C1   LIG A   1      26.700  25.931   8.199  1.00 20.00    -0.060 C 
ATOM      2 C2   LIG A   1      25.224  25.511   8.039  1.00 20.00    -0.016 C 
ATOM      3 C3   LIG A   1      25.219  23.962   7.911  1.00 20.00    -0.023 C 
ATOM      4 C4   LIG A   1      23.945  23.267   7.499  1.00 20.00    -0.046 C 
ATOM      5 C5   LIG A   1      23.344  22.238   8.142  1.00 20.00    -0.059 C 
ATOM      6 C6   LIG A   1      23.052  22.388   9.566  1.00 20.00    -0.054 C 
ATOM      7 C7   LIG A   1      21.855  22.113  10.141  1.00 20.00    +0.009 C 
ATOM      8 C8   LIG A   1      20.925  21.210   9.514  1.00 20.00    +0.131 A 
ATOM      9 C9   LIG A   1      20.113  21.362   8.396  1.00 20.00    -0.015 A 
ATOM     10 C10  LIG A   1      19.362  20.172   8.237  1.00 20.00    -0.015 A 
ATOM     11 C11  LIG A   1      19.730  19.339   9.271  1.00 20.00    +0.134 A 
ATOM     12 C12  LIG A   1      19.345  17.993   9.685  1.00 20.00    +0.017 A 
ATOM     13 C13  LIG A   1      18.409  17.259   8.947  1.00 20.00    -0.049 A 
ATOM     14 C14  LIG A   1      18.038  15.963   9.331  1.00 20.00    -0.038 A 
ATOM     15 C15  LIG A   1      18.605  15.352  10.454  1.00 20.00    +0.034 A 
ATOM     16 N16  LIG A   1      18.213  14.078  10.899  1.00 20.00    -0.385 NA
ATOM     17 C17  LIG A   1      18.123  13.019   9.879  1.00 20.00    +0.022 C 
ATOM     18 C18  LIG A   1      17.393  11.806  10.455  1.00 20.00    +0.022 C 
ATOM     19 C19  LIG A   1      15.909  12.088  10.551  1.00 20.00    +0.092 C 
ATOM     20 N20  LIG A   1      15.042  11.464   9.822  1.00 20.00    -0.289 NA
ATOM     21 N21  LIG A   1      15.473  13.041  11.419  1.00 20.00    -0.388 NA
ATOM     22 C22  LIG A   1      19.507  16.103  11.217  1.00 20.00    -0.038 A 
ATOM     23 C23  LIG A   1      19.884  17.397  10.831  1.00 20.00    -0.049 A 
ATOM     24 O24  LIG A   1      20.660  19.969  10.043  1.00 20.00    -0.456 OA
ATOM     25 C25  LIG A   1      21.497  22.838  11.433  1.00 20.00    +0.085 C 
ATOM     26 C26  LIG A   1      21.234  21.787  12.505  1.00 20.00    +0.311 C 
ATOM     27 O27  LIG A   1      22.078  21.074  13.028  1.00 20.00    -0.252 OA
ATOM     28 O28  LIG A   1      19.938  21.651  12.853  1.00 20.00    -0.481 OA
ATOM     29 C29  LIG A   1      20.322  23.833  11.236  1.00 20.00    -0.034 C 
ATOM     30 C30  LIG A   1      20.648  25.177  10.546  1.00 20.00    -0.034 C 
ATOM     31 C31  LIG A   1      20.686  25.202   8.998  1.00 20.00    +0.025 C 
ATOM     32 N32  LIG A   1      22.055  25.153   8.450  1.00 20.00    -0.318 NA
ATOM     33 C33  LIG A   1      22.137  24.827   7.084  1.00 20.00    +0.007 C 
ATOM     34 C34  LIG A   1      23.078  24.001   6.588  1.00 20.00    -0.043 C 
ATOM     35 C35  LIG A   1      22.829  26.271   8.818  1.00 20.00    +0.243 C 
ATOM     36 O36  LIG A   1      22.327  27.389   8.987  1.00 20.00    -0.273 OA
ATOM     37 C37  LIG A   1      24.323  25.998   9.199  1.00 20.00    +0.088 C 
ATOM     38 N38  LIG A   1      24.843  27.264   9.791  1.00 20.00    -0.320 NA
ATOM     39 C39  LIG A   1      20.219  25.740   7.103  1.00 20.00    -0.056 C 
ATOM     40 C40  LIG A   1      21.537  24.994   7.222  1.00 20.00    -0.002 C 
ATOM     41 S41  LIG A   1      21.285  23.196   7.258  1.00 20.00    -0.087 SA
ATOM     42 C42  LIG A   1      20.899  22.964   8.974  1.00 20.00    +0.205 C 
ATOM     43 O43  LIG A   1      20.811  23.913   9.747  1.00 20.00    -0.285 OA
ATOM     44 C44  LIG A   1      20.615  21.508   9.400  1.00 20.00    +0.074 C 
ATOM     45 N45  LIG A   1      19.379  21.010   8.756  1.00 20.00    -0.321 NA
ATOM     46 C46  LIG A   1      21.803  20.575   9.120  1.00 20.00    -0.028 C 
ATOM     47 C47  LIG A   1      21.867  19.333  10.016  1.00 20.00    -0.034 C 
ATOM     48 C48  LIG A   1      20.643  18.420   9.935  1.00 20.00    +0.018 C 
ATOM     49 N49  LIG A   1      20.923  17.133  10.562  1.00 20.00    -0.357 NA
ATOM     50 C50  LIG A   1      20.978  16.984  11.905  1.00 20.00    +0.185 C 
ATOM     51 N51  LIG A   1      20.685  17.884  12.767  1.00 20.00    -0.270 NA
ATOM     52 N52  LIG A   1      21.378  15.740  12.238  1.00 20.00    -0.370 NA
ATOM     53 H53  LIG A   1      27.117  25.568   9.145  1.00 20.00    +0.023 H 
ATOM     54 H54  LIG A   1      27.311  25.525   7.384  1.00 20.00    +0.023 H 
ATOM     55 H55  LIG A   1      26.816  27.019   8.160  1.00 20.00    +0.023 H 
ATOM     56 H56  LIG A   1      24.878  25.961   7.099  1.00 20.00    +0.032 H 
ATOM     57 H57  LIG A   1      25.958  23.687   7.146  1.00 20.00    +0.032 H 
ATOM     58 H58  LIG A   1      25.604  23.527   8.843  1.00 20.00    +0.032 H 
ATOM     59 H59  LIG A   1      22.546  21.735   7.598  1.00 20.00    +0.063 H 
ATOM     60 H60  LIG A   1      23.745  23.022  10.114  1.00 20.00    +0.063 H 
ATOM     61 H61  LIG A   1      20.075  22.233   7.760  1.00 20.00    +0.066 H 
ATOM     62 H62  LIG A   1      18.643  19.955   7.461  1.00 20.00    +0.066 H 
ATOM     63 H63  LIG A   1      17.941  17.685   8.063  1.00 20.00    +0.063 H 
ATOM     64 H64  LIG A   1      17.276  15.457   8.747  1.00 20.00    +0.064 H 
ATOM     65 H65  LIG A   1      18.815  13.775  11.666  1.00 20.00    +0.160 HD
ATOM     66 H66  LIG A   1      19.140  12.726   9.589  1.00 20.00    +0.049 H 
ATOM     67 H67  LIG A   1      17.600  13.350   8.976  1.00 20.00    +0.049 H 
ATOM     68 H68  LIG A   1      17.767  11.555  11.453  1.00 20.00    +0.037 H 
ATOM     69 H69  LIG A   1      17.555  10.937   9.807  1.00 20.00    +0.037 H 
ATOM     70 H70  LIG A   1      15.490  10.766   9.221  1.00 20.00    +0.189 HD
ATOM     71 H71  LIG A   1      16.132  13.811  11.553  1.00 20.00    +0.157 HD
ATOM     72 H72  LIG A   1      14.535  13.356  11.197  1.00 20.00    +0.157 HD
ATOM     73 H73  LIG A   1      19.941  15.688  12.122  1.00 20.00    +0.064 H 
ATOM     74 H74  LIG A   1      20.607  17.934  11.443  1.00 20.00    +0.063 H 
ATOM     75 H75  LIG A   1      22.346  23.421  11.817  1.00 20.00    +0.047 H 
ATOM     76 H76  LIG A   1      19.942  20.886  13.467  1.00 20.00    +0.296 HD
ATOM     77 H77  LIG A   1      19.475  23.354  10.729  1.00 20.00    +0.028 H 
ATOM     78 H78  LIG A   1      19.947  24.097  12.236  1.00 20.00    +0.028 H 
ATOM     79 H79  LIG A   1      21.560  25.597  10.988  1.00 20.00    +0.029 H 
ATOM     80 H80  LIG A   1      19.837  25.859  10.836  1.00 20.00    +0.029 H 
ATOM     81 H81  LIG A   1      20.104  24.368   8.596  1.00 20.00    +0.050 H 
ATOM     82 H82  LIG A   1      20.212  26.129   8.645  1.00 20.00    +0.050 H 
ATOM     83 H83  LIG A   1      21.386  25.277   6.439  1.00 20.00    +0.082 H 
ATOM     84 H84  LIG A   1      23.151  23.791   5.526  1.00 20.00    +0.064 H 
ATOM     85 H85  LIG A   1      24.322  25.266  10.013  1.00 20.00    +0.057 H 
ATOM     86 H86  LIG A   1      24.744  27.994   9.079  1.00 20.00    +0.119 HD
ATOM     87 H87  LIG A   1      24.174  27.561  10.509  1.00 20.00    +0.119 HD
ATOM     88 H88  LIG A   1      20.406  26.818   7.068  1.00 20.00    +0.024 H 
ATOM     89 H89  LIG A   1      19.689  25.470   6.181  1.00 20.00    +0.024 H 
ATOM     90 H90  LIG A   1      19.557  25.545   7.953  1.00 20.00    +0.024 H 
ATOM     91 H91  LIG A   1      22.155  25.221   6.346  1.00 20.00    +0.038 H 
ATOM     92 H92  LIG A   1      22.101  25.328   8.098  1.00 20.00    +0.038 H 
ATOM     93 H93  LIG A   1      20.439  21.538  10.483  1.00 20.00    +0.055 H 
ATOM     94 H94  LIG A   1      18.598  21.605   9.038  1.00 20.00    +0.119 HD
ATOM     95 H95  LIG A   1      19.464  21.122   7.744  1.00 20.00    +0.119 HD
ATOM     96 H96  LIG A   1      21.795  20.255   8.071  1.00 20.00    +0.029 H 
ATOM     97 H97  LIG A   1      22.740  21.130   9.262  1.00 20.00    +0.029 H 
ATOM     98 H98  LIG A   1      22.766  18.765   9.740  1.00 20.00    +0.029 H 
ATOM     99 H99  LIG A   1      22.019  19.652  11.055  1.00 20.00    +0.029 H 
ATOM    100 H100 LIG A   1      20.387  18.231   8.888  1.00 20.00    +0.049 H 
ATOM    101 H101 LIG A   1      19.771  18.881  10.410  1.00 20.00    +0.049 H 
ATOM    102 H102 LIG A   1      21.624  16.593  10.069  1.00 20.00    +0.163 HD
ATOM    103 H103 LIG A   1      20.839  17.526  13.709  1.00 20.00    +0.191 HD
ATOM    104 H104 LIG A   1      21.199  15.497  13.203  1.00 20.00    +0.159 HD
ATOM    105 H105 LIG A   1      20.964  15.043  11.626  1.00 20.00    +0.159 HD
ENDROOT
TORSDOF 0
                                                                                                            
ENDMDL
MODEL 4
REMARK VINA RESULT:   -11.163      3.879     10.855
REMARK INTER + INTRA:         -11.163
REMARK INTER:                 -11.163
REMARK INTRA:                   0.000
REMARK UNBOUND:                 0.000
ROOT
ATOM      1 C1   LIG A   1      23.713  10.968   6.533  1.00 20.00    -0.060 C 
ATOM      2 C2   LIG A   1      23.100  11.563   7.818  1.00 20.00    -0.016 C 
ATOM      3 C3   LIG A   1      23.596  13.034   7.902  1.00 20.00    -0.023 C 
ATOM      4 C4   LIG A   1      23.366  13.812   9.173  1.00 20.00    -0.046 C 
ATOM      5 C5   LIG A   1      22.788  15.031   9.279  1.00 20.00    -0.059 C 
ATOM      6 C6   LIG A   1      21.474  15.229   8.669  1.00 20.00    -0.054 C 
ATOM      7 C7   LIG A   1      20.412  15.795   9.293  1.00 20.00    +0.009 C 
ATOM      8 C8   LIG A   1      20.600  16.677  10.416  1.00 20.00    +0.131 A 
ATOM      9 C9   LIG A   1      20.964  16.420  11.732  1.00 20.00    -0.015 A 
ATOM     10 C10  LIG A   1      20.965  17.649  12.434  1.00 20.00    -0.015 A 
ATOM     11 C11  LIG A   1      20.586  18.615  11.527  1.00 20.00    +0.134 A 
ATOM     12 C12  LIG A   1      20.392  20.060  11.595  1.00 20.00    +0.017 A 
ATOM     13 C13  LIG A   1      20.619  20.757  12.788  1.00 20.00    -0.049 A 
ATOM     14 C14  LIG A   1      20.442  22.144  12.861  1.00 20.00    -0.038 A 
ATOM     15 C15  LIG A   1      20.051  22.884  11.741  1.00 20.00    +0.034 A 
ATOM     16 N16  LIG A   1      19.810  24.267  11.796  1.00 20.00    -0.385 NA
ATOM     17 C17  LIG A   1      20.825  25.091  12.475  1.00 20.00    +0.022 C 
ATOM     18 C18  LIG A   1      20.272  26.493  12.725  1.00 20.00    +0.022 C 
ATOM     19 C19  LIG A   1      19.273  26.466  13.863  1.00 20.00    +0.092 C 
ATOM     20 N20  LIG A   1      19.504  27.047  14.994  1.00 20.00    -0.289 NA
ATOM     21 N21  LIG A   1      18.103  25.792  13.697  1.00 20.00    -0.388 NA
ATOM     22 C22  LIG A   1      19.781  22.182  10.561  1.00 20.00    -0.038 A 
ATOM     23 C23  LIG A   1      19.963  20.794  10.483  1.00 20.00    -0.049 A 
ATOM     24 O24  LIG A   1      20.357  18.027  10.319  1.00 20.00    -0.456 OA
ATOM     25 C25  LIG A   1      19.015  15.420   8.815  1.00 20.00    +0.085 C 
ATOM     26 C26  LIG A   1      18.301  16.699   8.394  1.00 20.00    +0.311 C 
ATOM     27 O27  LIG A   1      18.562  17.370   7.405  1.00 20.00    -0.252 OA
ATOM     28 O28  LIG A   1      17.323  17.099   9.231  1.00 20.00    -0.481 OA
ATOM     29 C29  LIG A   1      18.238  14.595   9.875  1.00 20.00    -0.034 C 
ATOM     30 C30  LIG A   1      18.615  13.102  10.018  1.00 20.00    -0.034 C 
ATOM     31 C31  LIG A   1      19.834  12.748  10.906  1.00 20.00    +0.025 C 
ATOM     32 N32  LIG A   1      21.057  12.475  10.128  1.00 20.00    -0.318 NA
ATOM     33 C33  LIG A   1      22.251  12.492  10.872  1.00 20.00    +0.007 C 
ATOM     34 C34  LIG A   1      23.388  13.044  10.410  1.00 20.00    -0.043 C 
ATOM     35 C35  LIG A   1      20.925  11.354   9.283  1.00 20.00    +0.243 C 
ATOM     36 O36  LIG A   1      20.218  10.385   9.585  1.00 20.00    -0.273 OA
ATOM     37 C37  LIG A   1      21.556  11.472   7.856  1.00 20.00    +0.088 C 
ATOM     38 N38  LIG A   1      21.067  10.293   7.082  1.00 20.00    -0.320 NA
ATOM     39 C39  LIG A   1      20.901  11.903  12.404  1.00 20.00    -0.056 C 
ATOM     40 C40  LIG A   1      21.756  12.449  11.273  1.00 20.00    -0.002 C 
ATOM     41 S41  LIG A   1      22.048  14.232  11.459  1.00 20.00    -0.087 SA
ATOM     42 C42  LIG A   1      20.552  14.873  10.753  1.00 20.00    +0.205 C 
ATOM     43 O43  LIG A   1      19.656  14.132  10.364  1.00 20.00    -0.285 OA
ATOM     44 C44  LIG A   1      20.434  16.412  10.733  1.00 20.00    +0.074 C 
ATOM     45 N45  LIG A   1      20.355  16.946  12.111  1.00 20.00    -0.321 NA
ATOM     46 C46  LIG A   1      21.573  17.075   9.944  1.00 20.00    -0.028 C 
ATOM     47 C47  LIG A   1      21.234  18.453   9.364  1.00 20.00    -0.034 C 
ATOM     48 C48  LIG A   1      20.831  19.504  10.400  1.00 20.00    +0.018 C 
ATOM     49 N49  LIG A   1      20.836  20.836   9.806  1.00 20.00    -0.357 NA
ATOM     50 C50  LIG A   1      19.861  21.252   8.966  1.00 20.00    +0.185 C 
ATOM     51 N51  LIG A   1      18.791  20.607   8.689  1.00 20.00    -0.270 NA
ATOM     52 N52  LIG A   1      20.153  22.463   8.450  1.00 20.00    -0.370 NA
ATOM     53 H53  LIG A   1      23.309  11.453   5.638  1.00 20.00    +0.023 H 
ATOM     54 H54  LIG A   1      24.802  11.098   6.525  1.00 20.00    +0.023 H 
ATOM     55 H55  LIG A   1      23.529   9.891   6.461  1.00 20.00    +0.023 H 
ATOM     56 H56  LIG A   1      23.517  10.984   8.652  1.00 20.00    +0.032 H 
ATOM     57 H57  LIG A   1      24.687  13.028   7.760  1.00 20.00    +0.032 H 
ATOM     58 H58  LIG A   1      23.205  13.591   7.040  1.00 20.00    +0.032 H 
ATOM     59 H59  LIG A   1      22.883  15.524  10.245  1.00 20.00    +0.063 H 
ATOM     60 H60  LIG A   1      21.281  14.626   7.785  1.00 20.00    +0.063 H 
ATOM     61 H61  LIG A   1      21.213  15.451  12.138  1.00 20.00    +0.066 H 
ATOM     62 H62  LIG A   1      21.213  17.805  13.473  1.00 20.00    +0.066 H 
ATOM     63 H63  LIG A   1      20.928  20.230  13.687  1.00 20.00    +0.063 H 
ATOM     64 H64  LIG A   1      20.590  22.627  13.823  1.00 20.00    +0.064 H 
ATOM     65 H65  LIG A   1      19.636  24.630  10.857  1.00 20.00    +0.160 HD
ATOM     66 H66  LIG A   1      21.708  25.159  11.829  1.00 20.00    +0.049 H 
ATOM     67 H67  LIG A   1      21.141  24.661  13.431  1.00 20.00    +0.049 H 
ATOM     68 H68  LIG A   1      19.774  26.889  11.832  1.00 20.00    +0.037 H 
ATOM     69 H69  LIG A   1      21.092  27.173  12.980  1.00 20.00    +0.037 H 
ATOM     70 H70  LIG A   1      20.409  27.527  14.991  1.00 20.00    +0.189 HD
ATOM     71 H71  LIG A   1      18.177  24.976  13.085  1.00 20.00    +0.157 HD
ATOM     72 H72  LIG A   1      17.656  25.583  14.584  1.00 20.00    +0.157 HD
ATOM     73 H73  LIG A   1      19.432  22.707   9.676  1.00 20.00    +0.064 H 
ATOM     74 H74  LIG A   1      19.763  20.294   9.537  1.00 20.00    +0.063 H 
ATOM     75 H75  LIG A   1      19.052  14.808   7.902  1.00 20.00    +0.047 H 
ATOM     76 H76  LIG A   1      17.045  17.966   8.866  1.00 20.00    +0.296 HD
ATOM     77 H77  LIG A   1      18.271  15.079  10.859  1.00 20.00    +0.028 H 
ATOM     78 H78  LIG A   1      17.177  14.605   9.584  1.00 20.00    +0.028 H 
ATOM     79 H79  LIG A   1      18.685  12.651   9.022  1.00 20.00    +0.029 H 
ATOM     80 H80  LIG A   1      17.748  12.626  10.499  1.00 20.00    +0.029 H 
ATOM     81 H81  LIG A   1      20.028  13.559  11.614  1.00 20.00    +0.050 H 
ATOM     82 H82  LIG A   1      19.598  11.851  11.494  1.00 20.00    +0.050 H 
ATOM     83 H83  LIG A   1      22.205  12.035  11.858  1.00 20.00    +0.082 H 
ATOM     84 H84  LIG A   1      24.311  13.013  10.981  1.00 20.00    +0.064 H 
ATOM     85 H85  LIG A   1      21.111  12.350   7.375  1.00 20.00    +0.057 H 
ATOM     86 H86  LIG A   1      21.375   9.455   7.582  1.00 20.00    +0.119 HD
ATOM     87 H87  LIG A   1      20.048  10.258   7.195  1.00 20.00    +0.119 HD
ATOM     88 H88  LIG A   1      20.757  10.826  12.271  1.00 20.00    +0.024 H 
ATOM     89 H89  LIG A   1      21.384  12.052  13.377  1.00 20.00    +0.024 H 
ATOM     90 H90  LIG A   1      19.911  12.369  12.434  1.00 20.00    +0.024 H 
ATOM     91 H91  LIG A   1      22.734  11.953  11.294  1.00 20.00    +0.038 H 
ATOM     92 H92  LIG A   1      21.312  12.225  10.299  1.00 20.00    +0.038 H 
ATOM     93 H93  LIG A   1      19.483  16.636  10.233  1.00 20.00    +0.055 H 
ATOM     94 H94  LIG A   1      19.534  16.547  12.572  1.00 20.00    +0.119 HD
ATOM     95 H95  LIG A   1      21.162  16.613  12.643  1.00 20.00    +0.119 HD
ATOM     96 H96  LIG A   1      22.467  17.166  10.573  1.00 20.00    +0.029 H 
ATOM     97 H97  LIG A   1      21.857  16.427   9.104  1.00 20.00    +0.029 H 
ATOM     98 H98  LIG A   1      22.110  18.809   8.805  1.00 20.00    +0.029 H 
ATOM     99 H99  LIG A   1      20.430  18.340   8.625  1.00 20.00    +0.029 H 
ATOM    100 H100 LIG A   1      21.547  19.506  11.227  1.00 20.00    +0.049 H 
ATOM    101 H101 LIG A   1      19.843  19.289  10.820  1.00 20.00    +0.049 H 
ATOM    102 H102 LIG A   1      21.760  21.148   9.535  1.00 20.00    +0.163 HD
ATOM    103 H103 LIG A   1      18.238  21.127   8.007  1.00 20.00    +0.191 HD
ATOM    104 H104 LIG A   1      19.362  22.927   8.022  1.00 20.00    +0.159 HD
ATOM    105 H105 LIG A   1      20.571  23.071   9.147  1.00 20.00    +0.159 HD
ENDROOT
TORSDOF 0
                                                                                                            
ENDMDL
MODEL 5
REMARK VINA RESULT:   -11.043      1.726      2.154
REMARK INTER + INTRA:         -11.043
REMARK INTER:                 -11.043
REMARK INTRA:                   0.000
REMARK UNBOUND:                 0.000
ROOT
ATOM      1 C1   LIG A   1      19.937  28.401  13.615  1.00 20.00    -0.060 C 
ATOM      2 C2   LIG A   1      20.762  27.106  13.765  1.00 20.00    -0.016 C 
ATOM      3 C3   LIG A   1      19.748  25.930  13.711  1.00 20.00    -0.023 C 
ATOM      4 C4   LIG A   1      20.216  24.543  14.073  1.00 20.00    -0.046 C 
ATOM      5 C5   LIG A   1      20.064  23.421  13.331  1.00 20.00    -0.059 C 
ATOM      6 C6   LIG A   1      20.520  23.442  11.942  1.00 20.00    -0.054 C 
ATOM      7 C7   LIG A   1      21.299  22.492  11.372  1.00 20.00    +0.009 C 
ATOM      8 C8   LIG A   1      21.353  21.159  11.914  1.00 20.00    +0.131 A 
ATOM      9 C9   LIG A   1      21.956  20.660  13.063  1.00 20.00    -0.015 A 
ATOM     10 C10  LIG A   1      21.734  19.263  13.102  1.00 20.00    -0.015 A 
ATOM     11 C11  LIG A   1      21.016  18.951  11.968  1.00 20.00    +0.134 A 
ATOM     12 C12  LIG A   1      20.472  17.716  11.410  1.00 20.00    +0.017 A 
ATOM     13 C13  LIG A   1      20.629  16.498  12.083  1.00 20.00    -0.049 A 
ATOM     14 C14  LIG A   1      20.105  15.309  11.559  1.00 20.00    -0.038 A 
ATOM     15 C15  LIG A   1      19.390  15.302  10.358  1.00 20.00    +0.034 A 
ATOM     16 N16  LIG A   1      18.901  14.119   9.778  1.00 20.00    -0.385 NA
ATOM     17 C17  LIG A   1      18.181  13.192  10.669  1.00 20.00    +0.022 C 
ATOM     18 C18  LIG A   1      18.000  11.842   9.975  1.00 20.00    +0.022 C 
ATOM     19 C19  LIG A   1      19.312  11.086   9.952  1.00 20.00    +0.092 C 
ATOM     20 N20  LIG A   1      19.490   9.998  10.626  1.00 20.00    -0.289 NA
ATOM     21 N21  LIG A   1      20.344  11.578   9.214  1.00 20.00    -0.388 NA
ATOM     22 C22  LIG A   1      19.272  16.511   9.664  1.00 20.00    -0.038 A 
ATOM     23 C23  LIG A   1      19.790  17.703  10.188  1.00 20.00    -0.049 A 
ATOM     24 O24  LIG A   1      20.799  20.089  11.251  1.00 20.00    -0.456 OA
ATOM     25 C25  LIG A   1      22.166  22.892  10.184  1.00 20.00    +0.085 C 
ATOM     26 C26  LIG A   1      21.786  22.005   9.004  1.00 20.00    +0.311 C 
ATOM     27 O27  LIG A   1      20.737  22.060   8.377  1.00 20.00    -0.252 OA
ATOM     28 O28  LIG A   1      22.709  21.078   8.677  1.00 20.00    -0.481 OA
ATOM     29 C29  LIG A   1      23.679  22.855  10.528  1.00 20.00    -0.034 C 
ATOM     30 C30  LIG A   1      24.239  24.030  11.361  1.00 20.00    -0.034 C 
ATOM     31 C31  LIG A   1      24.077  23.964  12.900  1.00 20.00    +0.025 C 
ATOM     32 N32  LIG A   1      22.959  24.786  13.401  1.00 20.00    -0.318 NA
ATOM     33 C33  LIG A   1      22.553  24.499  14.717  1.00 20.00    +0.007 C 
ATOM     34 C34  LIG A   1      21.259  24.460  15.086  1.00 20.00    -0.043 C 
ATOM     35 C35  LIG A   1      23.138  26.161  13.145  1.00 20.00    +0.243 C 
ATOM     36 O36  LIG A   1      24.259  26.684  13.122  1.00 20.00    -0.273 OA
ATOM     37 C37  LIG A   1      21.871  26.962  12.695  1.00 20.00    +0.088 C 
ATOM     38 N38  LIG A   1      22.358  28.297  12.241  1.00 20.00    -0.320 NA
ATOM     39 C39  LIG A   1      24.594  23.927  14.857  1.00 20.00    -0.056 C 
ATOM     40 C40  LIG A   1      23.127  24.241  14.615  1.00 20.00    -0.002 C 
ATOM     41 S41  LIG A   1      22.153  22.727  14.376  1.00 20.00    -0.087 SA
ATOM     42 C42  LIG A   1      22.460  22.421  12.656  1.00 20.00    +0.205 C 
ATOM     43 O43  LIG A   1      23.218  23.131  12.002  1.00 20.00    -0.285 OA
ATOM     44 C44  LIG A   1      21.770  21.171  12.070  1.00 20.00    +0.074 C 
ATOM     45 N45  LIG A   1      22.316  19.940  12.684  1.00 20.00    -0.321 NA
ATOM     46 C46  LIG A   1      20.241  21.230  12.207  1.00 20.00    -0.028 C 
ATOM     47 C47  LIG A   1      19.473  20.402  11.170  1.00 20.00    -0.034 C 
ATOM     48 C48  LIG A   1      19.795  18.907  11.176  1.00 20.00    +0.018 C 
ATOM     49 N49  LIG A   1      18.809  18.168  10.396  1.00 20.00    -0.357 NA
ATOM     50 C50  LIG A   1      18.801  18.187   9.043  1.00 20.00    +0.185 C 
ATOM     51 N51  LIG A   1      19.690  18.732   8.301  1.00 20.00    -0.270 NA
ATOM     52 N52  LIG A   1      17.724  17.538   8.557  1.00 20.00    -0.370 NA
ATOM     53 H53  LIG A   1      19.480  28.470  12.622  1.00 20.00    +0.023 H 
ATOM     54 H54  LIG A   1      19.134  28.440  14.360  1.00 20.00    +0.023 H 
ATOM     55 H55  LIG A   1      20.553  29.292  13.779  1.00 20.00    +0.023 H 
ATOM     56 H56  LIG A   1      21.224  27.151  14.760  1.00 20.00    +0.032 H 
ATOM     57 H57  LIG A   1      18.937  26.154  14.418  1.00 20.00    +0.032 H 
ATOM     58 H58  LIG A   1      19.265  25.921  12.724  1.00 20.00    +0.032 H 
ATOM     59 H59  LIG A   1      20.286  22.481  13.834  1.00 20.00    +0.063 H 
ATOM     60 H60  LIG A   1      20.462  24.412  11.453  1.00 20.00    +0.063 H 
ATOM     61 H61  LIG A   1      22.488  21.245  13.798  1.00 20.00    +0.066 H 
ATOM     62 H62  LIG A   1      22.060  18.573  13.866  1.00 20.00    +0.066 H 
ATOM     63 H63  LIG A   1      21.173  16.450  13.022  1.00 20.00    +0.063 H 
ATOM     64 H64  LIG A   1      20.294  14.387  12.101  1.00 20.00    +0.064 H 
ATOM     65 H65  LIG A   1      18.325  14.340   8.964  1.00 20.00    +0.160 HD
ATOM     66 H66  LIG A   1      17.197  13.618  10.894  1.00 20.00    +0.049 H 
ATOM     67 H67  LIG A   1      18.704  13.033  11.618  1.00 20.00    +0.049 H 
ATOM     68 H68  LIG A   1      17.652  11.969   8.944  1.00 20.00    +0.037 H 
ATOM     69 H69  LIG A   1      17.251  11.250  10.512  1.00 20.00    +0.037 H 
ATOM     70 H70  LIG A   1      18.640   9.725  11.130  1.00 20.00    +0.189 HD
ATOM     71 H71  LIG A   1      20.361  12.599   9.154  1.00 20.00    +0.157 HD
ATOM     72 H72  LIG A   1      21.235  11.183   9.497  1.00 20.00    +0.157 HD
ATOM     73 H73  LIG A   1      18.763  16.548   8.704  1.00 20.00    +0.064 H 
ATOM     74 H74  LIG A   1      19.653  18.624   9.624  1.00 20.00    +0.063 H 
ATOM     75 H75  LIG A   1      21.942  23.915   9.848  1.00 20.00    +0.047 H 
ATOM     76 H76  LIG A   1      22.269  20.549   7.978  1.00 20.00    +0.296 HD
ATOM     77 H77  LIG A   1      23.958  21.903  10.998  1.00 20.00    +0.028 H 
ATOM     78 H78  LIG A   1      24.230  22.878   9.576  1.00 20.00    +0.028 H 
ATOM     79 H79  LIG A   1      23.868  24.975  10.947  1.00 20.00    +0.029 H 
ATOM     80 H80  LIG A   1      25.323  24.030  11.175  1.00 20.00    +0.029 H 
ATOM     81 H81  LIG A   1      23.934  22.927  13.217  1.00 20.00    +0.050 H 
ATOM     82 H82  LIG A   1      25.001  24.324  13.372  1.00 20.00    +0.050 H 
ATOM     83 H83  LIG A   1      23.349  24.298  15.430  1.00 20.00    +0.082 H 
ATOM     84 H84  LIG A   1      20.964  24.276  16.115  1.00 20.00    +0.064 H 
ATOM     85 H85  LIG A   1      21.475  26.469  11.801  1.00 20.00    +0.057 H 
ATOM     86 H86  LIG A   1      22.837  28.730  13.036  1.00 20.00    +0.119 HD
ATOM     87 H87  LIG A   1      23.125  28.132  11.582  1.00 20.00    +0.119 HD
ATOM     88 H88  LIG A   1      25.150  24.858  15.012  1.00 20.00    +0.024 H 
ATOM     89 H89  LIG A   1      24.728  23.312  15.754  1.00 20.00    +0.024 H 
ATOM     90 H90  LIG A   1      25.050  23.407  14.008  1.00 20.00    +0.024 H 
ATOM     91 H91  LIG A   1      22.724  24.755  15.495  1.00 20.00    +0.038 H 
ATOM     92 H92  LIG A   1      23.004  24.924  13.770  1.00 20.00    +0.038 H 
ATOM     93 H93  LIG A   1      22.028  21.154  11.004  1.00 20.00    +0.055 H 
ATOM     94 H94  LIG A   1      23.319  19.895  12.495  1.00 20.00    +0.119 HD
ATOM     95 H95  LIG A   1      22.227  20.008  13.700  1.00 20.00    +0.119 HD
ATOM     96 H96  LIG A   1      19.937  20.910  13.211  1.00 20.00    +0.029 H 
ATOM     97 H97  LIG A   1      19.908  22.271  12.106  1.00 20.00    +0.029 H 
ATOM     98 H98  LIG A   1      18.399  20.545  11.353  1.00 20.00    +0.029 H 
ATOM     99 H99  LIG A   1      19.666  20.815  10.171  1.00 20.00    +0.029 H 
ATOM    100 H100 LIG A   1      19.763  18.523  12.201  1.00 20.00    +0.049 H 
ATOM    101 H101 LIG A   1      20.798  18.714  10.783  1.00 20.00    +0.049 H 
ATOM    102 H102 LIG A   1      17.882  18.188  10.803  1.00 20.00    +0.163 HD
ATOM    103 H103 LIG A   1      19.433  18.631   7.320  1.00 20.00    +0.191 HD
ATOM    104 H104 LIG A   1      17.795  17.307   7.575  1.00 20.00    +0.159 HD
ATOM    105 H105 LIG A   1      17.524  16.700   9.094  1.00 20.00    +0.159 HD
ENDROOT
TORSDOF 0
                                                                                                            
ENDMDL
MODEL 6
REMARK VINA RESULT:   -10.916      6.703     13.379
REMARK INTER + INTRA:         -10.916
REMARK INTER:                 -10.916
REMARK INTRA:                   0.000
REMARK UNBOUND:                 0.000
ROOT
ATOM      1 C1   LIG A   1      11.016  12.480   3.341  1.00 20.00    -0.060 C 
ATOM      2 C2   LIG A   1      12.551  12.447   3.194  1.00 20.00    -0.016 C 
ATOM      3 C3   LIG A   1      13.036  13.919   3.309  1.00 20.00    -0.023 C 
ATOM      4 C4   LIG A   1      14.468  14.246   2.964  1.00 20.00    -0.046 C 
ATOM      5 C5   LIG A   1      15.348  14.925   3.735  1.00 20.00    -0.059 C 
ATOM      6 C6   LIG A   1      15.561  14.468   5.108  1.00 20.00    -0.054 C 
ATOM      7 C7   LIG A   1      16.776  14.267   5.674  1.00 20.00    +0.009 C 
ATOM      8 C8   LIG A   1      17.947  14.929   5.161  1.00 20.00    +0.131 A 
ATOM      9 C9   LIG A   1      18.688  14.716   4.005  1.00 20.00    -0.015 A 
ATOM     10 C10  LIG A   1      19.771  15.627   4.005  1.00 20.00    -0.015 A 
ATOM     11 C11  LIG A   1      19.665  16.357   5.169  1.00 20.00    +0.134 A 
ATOM     12 C12  LIG A   1      20.442  17.436   5.772  1.00 20.00    +0.017 A 
ATOM     13 C13  LIG A   1      21.568  17.956   5.124  1.00 20.00    -0.049 A 
ATOM     14 C14  LIG A   1      22.315  18.996   5.691  1.00 20.00    -0.038 A 
ATOM     15 C15  LIG A   1      21.949  19.565   6.915  1.00 20.00    +0.034 A 
ATOM     16 N16  LIG A   1      22.709  20.569   7.538  1.00 20.00    -0.385 NA
ATOM     17 C17  LIG A   1      23.136  21.698   6.693  1.00 20.00    +0.022 C 
ATOM     18 C18  LIG A   1      24.196  22.521   7.423  1.00 20.00    +0.022 C 
ATOM     19 C19  LIG A   1      25.520  21.786   7.420  1.00 20.00    +0.092 C 
ATOM     20 N20  LIG A   1      26.547  22.221   6.765  1.00 20.00    -0.289 NA
ATOM     21 N21  LIG A   1      25.629  20.620   8.112  1.00 20.00    -0.388 NA
ATOM     22 C22  LIG A   1      20.850  19.015   7.585  1.00 20.00    -0.038 A 
ATOM     23 C23  LIG A   1      20.098  17.978   7.016  1.00 20.00    -0.049 A 
ATOM     24 O24  LIG A   1      18.576  15.928   5.867  1.00 20.00    -0.456 OA
ATOM     25 C25  LIG A   1      16.877  13.272   6.823  1.00 20.00    +0.085 C 
ATOM     26 C26  LIG A   1      17.437  14.006   8.036  1.00 20.00    +0.311 C 
ATOM     27 O27  LIG A   1      16.847  14.851   8.694  1.00 20.00    -0.252 OA
ATOM     28 O28  LIG A   1      18.706  13.681   8.353  1.00 20.00    -0.481 OA
ATOM     29 C29  LIG A   1      17.689  12.009   6.431  1.00 20.00    -0.034 C 
ATOM     30 C30  LIG A   1      16.973  10.957   5.553  1.00 20.00    -0.034 C 
ATOM     31 C31  LIG A   1      16.950  11.192   4.022  1.00 20.00    +0.025 C 
ATOM     32 N32  LIG A   1      15.671  11.745   3.539  1.00 20.00    -0.318 NA
ATOM     33 C33  LIG A   1      15.711  12.294   2.245  1.00 20.00    +0.007 C 
ATOM     34 C34  LIG A   1      15.078  13.436   1.918  1.00 20.00    -0.043 C 
ATOM     35 C35  LIG A   1      14.584  10.874   3.758  1.00 20.00    +0.243 C 
ATOM     36 O36  LIG A   1      14.714   9.644   3.732  1.00 20.00    -0.273 OA
ATOM     37 C37  LIG A   1      13.243  11.528   4.230  1.00 20.00    +0.088 C 
ATOM     38 N38  LIG A   1      12.349  10.405   4.637  1.00 20.00    -0.320 NA
ATOM     39 C39  LIG A   1      17.254  10.846   2.051  1.00 20.00    -0.056 C 
ATOM     40 C40  LIG A   1      16.228  11.931   2.333  1.00 20.00    -0.002 C 
ATOM     41 S41  LIG A   1      17.023  13.535   2.638  1.00 20.00    -0.087 SA
ATOM     42 C42  LIG A   1      17.438  13.361   4.354  1.00 20.00    +0.205 C 
ATOM     43 O43  LIG A   1      17.219  12.321   4.967  1.00 20.00    -0.285 OA
ATOM     44 C44  LIG A   1      18.152  14.572   4.991  1.00 20.00    +0.074 C 
ATOM     45 N45  LIG A   1      19.490  14.763   4.388  1.00 20.00    -0.321 NA
ATOM     46 C46  LIG A   1      17.314  15.857   4.903  1.00 20.00    -0.028 C 
ATOM     47 C47  LIG A   1      17.624  16.900   5.984  1.00 20.00    -0.034 C 
ATOM     48 C48  LIG A   1      19.071  17.394   6.001  1.00 20.00    +0.018 C 
ATOM     49 N49  LIG A   1      19.194  18.588   6.830  1.00 20.00    -0.357 NA
ATOM     50 C50  LIG A   1      19.170  18.530   8.181  1.00 20.00    +0.185 C 
ATOM     51 N51  LIG A   1      19.159  17.459   8.881  1.00 20.00    -0.270 NA
ATOM     52 N52  LIG A   1      19.169  19.768   8.717  1.00 20.00    -0.370 NA
ATOM     53 H53  LIG A   1      10.719  12.797   4.347  1.00 20.00    +0.023 H 
ATOM     54 H54  LIG A   1      10.571  13.178   2.623  1.00 20.00    +0.023 H 
ATOM     55 H55  LIG A   1      10.570  11.500   3.137  1.00 20.00    +0.023 H 
ATOM     56 H56  LIG A   1      12.754  12.068   2.184  1.00 20.00    +0.032 H 
ATOM     57 H57  LIG A   1      12.428  14.526   2.623  1.00 20.00    +0.032 H 
ATOM     58 H58  LIG A   1      12.792  14.297   4.310  1.00 20.00    +0.032 H 
ATOM     59 H59  LIG A   1      16.269  15.238   3.248  1.00 20.00    +0.063 H 
ATOM     60 H60  LIG A   1      14.699  13.998   5.576  1.00 20.00    +0.063 H 
ATOM     61 H61  LIG A   1      18.464  13.988   3.240  1.00 20.00    +0.066 H 
ATOM     62 H62  LIG A   1      20.532  15.734   3.247  1.00 20.00    +0.066 H 
ATOM     63 H63  LIG A   1      21.893  17.553   4.168  1.00 20.00    +0.063 H 
ATOM     64 H64  LIG A   1      23.204  19.331   5.165  1.00 20.00    +0.064 H 
ATOM     65 H65  LIG A   1      22.220  20.916   8.365  1.00 20.00    +0.160 HD
ATOM     66 H66  LIG A   1      22.263  22.331   6.490  1.00 20.00    +0.049 H 
ATOM     67 H67  LIG A   1      23.543  21.370   5.731  1.00 20.00    +0.049 H 
ATOM     68 H68  LIG A   1      23.905  22.712   8.462  1.00 20.00    +0.037 H 
ATOM     69 H69  LIG A   1      24.319  23.489   6.925  1.00 20.00    +0.037 H 
ATOM     70 H70  LIG A   1      26.343  23.109   6.297  1.00 20.00    +0.189 HD
ATOM     71 H71  LIG A   1      24.763  20.077   8.149  1.00 20.00    +0.157 HD
ATOM     72 H72  LIG A   1      26.427  20.071   7.809  1.00 20.00    +0.157 HD
ATOM     73 H73  LIG A   1      20.554  19.394   8.559  1.00 20.00    +0.064 H 
ATOM     74 H74  LIG A   1      19.236  17.598   7.563  1.00 20.00    +0.063 H 
ATOM     75 H75  LIG A   1      15.883  12.923   7.143  1.00 20.00    +0.047 H 
ATOM     76 H76  LIG A   1      18.930  14.302   9.078  1.00 20.00    +0.296 HD
ATOM     77 H77  LIG A   1      18.649  12.279   5.974  1.00 20.00    +0.028 H 
ATOM     78 H78  LIG A   1      17.951  11.487   7.364  1.00 20.00    +0.028 H 
ATOM     79 H79  LIG A   1      15.971  10.772   5.957  1.00 20.00    +0.029 H 
ATOM     80 H80  LIG A   1      17.531  10.022   5.703  1.00 20.00    +0.029 H 
ATOM     81 H81  LIG A   1      17.766  11.860   3.734  1.00 20.00    +0.050 H 
ATOM     82 H82  LIG A   1      17.119  10.233   3.512  1.00 20.00    +0.050 H 
ATOM     83 H83  LIG A   1      16.295  11.744   1.511  1.00 20.00    +0.082 H 
ATOM     84 H84  LIG A   1      15.087  13.825   0.905  1.00 20.00    +0.064 H 
ATOM     85 H85  LIG A   1      13.459  12.086   5.148  1.00 20.00    +0.057 H 
ATOM     86 H86  LIG A   1      12.228   9.804   3.817  1.00 20.00    +0.119 HD
ATOM     87 H87  LIG A   1      12.885   9.807   5.275  1.00 20.00    +0.119 HD
ATOM     88 H88  LIG A   1      16.743   9.897   1.856  1.00 20.00    +0.024 H 
ATOM     89 H89  LIG A   1      17.853  11.084   1.164  1.00 20.00    +0.024 H 
ATOM     90 H90  LIG A   1      17.932  10.690   2.896  1.00 20.00    +0.024 H 
ATOM     91 H91  LIG A   1      15.582  12.047   1.455  1.00 20.00    +0.038 H 
ATOM     92 H92  LIG A   1      15.577  11.651   3.166  1.00 20.00    +0.038 H 
ATOM     93 H93  LIG A   1      18.296  14.318   6.049  1.00 20.00    +0.055 H 
ATOM     94 H94  LIG A   1      20.045  13.920   4.545  1.00 20.00    +0.119 HD
ATOM     95 H95  LIG A   1      19.388  14.845   3.374  1.00 20.00    +0.119 HD
ATOM     96 H96  LIG A   1      17.434  16.321   3.918  1.00 20.00    +0.029 H 
ATOM     97 H97  LIG A   1      16.249  15.601   4.991  1.00 20.00    +0.029 H 
ATOM     98 H98  LIG A   1      16.949  17.752   5.832  1.00 20.00    +0.029 H 
ATOM     99 H99  LIG A   1      17.368  16.481   6.966  1.00 20.00    +0.029 H 
ATOM    100 H100 LIG A   1      19.387  17.659   4.987  1.00 20.00    +0.049 H 
ATOM    101 H101 LIG A   1      19.752  16.618   6.365  1.00 20.00    +0.049 H 
ATOM    102 H102 LIG A   1      18.701  19.387   6.453  1.00 20.00    +0.163 HD
ATOM    103 H103 LIG A   1      19.111  17.692   9.873  1.00 20.00    +0.191 HD
ATOM    104 H104 LIG A   1      19.401  19.787   9.702  1.00 20.00    +0.159 HD
ATOM    105 H105 LIG A   1      19.786  20.392   8.207  1.00 20.00    +0.159 HD
ENDROOT
TORSDOF 0
                                                                                                            
ENDMDL
MODEL 7
REMARK VINA RESULT:   -10.902      3.135      9.861
REMARK INTER + INTRA:         -10.902
REMARK INTER:                 -10.902
REMARK INTRA:                   0.000
REMARK UNBOUND:                 0.000
ROOT
ATOM      1 C1   LIG A   1      24.746  16.925  11.191  1.00 20.00    -0.060 C 
ATOM      2 C2   LIG A   1      23.563  17.878  10.923  1.00 20.00    -0.016 C 
ATOM      3 C3   LIG A   1      23.183  18.504  12.294  1.00 20.00    -0.023 C 
ATOM      4 C4   LIG A   1      21.905  19.297  12.406  1.00 20.00    -0.046 C 
ATOM      5 C5   LIG A   1      21.773  20.548  12.904  1.00 20.00    -0.059 C 
ATOM      6 C6   LIG A   1      22.628  21.602  12.360  1.00 20.00    -0.054 C 
ATOM      7 C7   LIG A   1      22.188  22.815  11.946  1.00 20.00    +0.009 C 
ATOM      8 C8   LIG A   1      20.947  23.357  12.436  1.00 20.00    +0.131 A 
ATOM      9 C9   LIG A   1      19.627  23.021  12.159  1.00 20.00    -0.015 A 
ATOM     10 C10  LIG A   1      18.791  23.900  12.888  1.00 20.00    -0.015 A 
ATOM     11 C11  LIG A   1      19.626  24.754  13.574  1.00 20.00    +0.134 A 
ATOM     12 C12  LIG A   1      19.417  25.871  14.490  1.00 20.00    +0.017 A 
ATOM     13 C13  LIG A   1      18.124  26.265  14.853  1.00 20.00    -0.049 A 
ATOM     14 C14  LIG A   1      17.913  27.331  15.737  1.00 20.00    -0.038 A 
ATOM     15 C15  LIG A   1      18.987  28.025  16.303  1.00 20.00    +0.034 A 
ATOM     16 N16  LIG A   1      18.809  29.134  17.147  1.00 20.00    -0.385 NA
ATOM     17 C17  LIG A   1      17.821  28.991  18.230  1.00 20.00    +0.022 C 
ATOM     18 C18  LIG A   1      17.522  30.359  18.843  1.00 20.00    +0.022 C 
ATOM     19 C19  LIG A   1      16.647  31.169  17.909  1.00 20.00    +0.092 C 
ATOM     20 N20  LIG A   1      15.427  31.478  18.205  1.00 20.00    -0.289 NA
ATOM     21 N21  LIG A   1      17.154  31.568  16.711  1.00 20.00    -0.388 NA
ATOM     22 C22  LIG A   1      20.278  27.660  15.905  1.00 20.00    -0.038 A 
ATOM     23 C23  LIG A   1      20.492  26.590  15.025  1.00 20.00    -0.049 A 
ATOM     24 O24  LIG A   1      20.920  24.433  13.292  1.00 20.00    -0.456 OA
ATOM     25 C25  LIG A   1      23.009  23.557  10.898  1.00 20.00    +0.085 C 
ATOM     26 C26  LIG A   1      23.409  24.907  11.482  1.00 20.00    +0.311 C 
ATOM     27 O27  LIG A   1      24.220  25.085  12.379  1.00 20.00    -0.252 OA
ATOM     28 O28  LIG A   1      22.765  25.964  10.946  1.00 20.00    -0.481 OA
ATOM     29 C29  LIG A   1      22.263  23.663   9.541  1.00 20.00    -0.034 C 
ATOM     30 C30  LIG A   1      22.233  22.397   8.654  1.00 20.00    -0.034 C 
ATOM     31 C31  LIG A   1      21.151  21.331   8.956  1.00 20.00    +0.025 C 
ATOM     32 N32  LIG A   1      21.667  20.182   9.725  1.00 20.00    -0.318 NA
ATOM     33 C33  LIG A   1      20.680  19.372  10.316  1.00 20.00    +0.007 C 
ATOM     34 C34  LIG A   1      20.803  18.865  11.557  1.00 20.00    -0.043 C 
ATOM     35 C35  LIG A   1      22.657  19.461   9.027  1.00 20.00    +0.243 C 
ATOM     36 O36  LIG A   1      22.647  19.358   7.794  1.00 20.00    -0.273 OA
ATOM     37 C37  LIG A   1      23.881  18.960   9.863  1.00 20.00    +0.088 C 
ATOM     38 N38  LIG A   1      24.890  18.470   8.878  1.00 20.00    -0.320 NA
ATOM     39 C39  LIG A   1      19.575  20.096   8.652  1.00 20.00    -0.056 C 
ATOM     40 C40  LIG A   1      20.408  19.740   9.872  1.00 20.00    -0.002 C 
ATOM     41 S41  LIG A   1      19.933  20.734  11.316  1.00 20.00    -0.087 SA
ATOM     42 C42  LIG A   1      20.865  22.211  11.005  1.00 20.00    +0.205 C 
ATOM     43 O43  LIG A   1      21.536  22.345   9.986  1.00 20.00    -0.285 OA
ATOM     44 C44  LIG A   1      20.712  23.328  12.059  1.00 20.00    +0.074 C 
ATOM     45 N45  LIG A   1      19.329  23.854  12.064  1.00 20.00    -0.321 NA
ATOM     46 C46  LIG A   1      21.136  22.868  13.463  1.00 20.00    -0.028 C 
ATOM     47 C47  LIG A   1      21.594  23.995  14.396  1.00 20.00    -0.034 C 
ATOM     48 C48  LIG A   1      20.547  25.079  14.654  1.00 20.00    +0.018 C 
ATOM     49 N49  LIG A   1      20.948  25.919  15.777  1.00 20.00    -0.357 NA
ATOM     50 C50  LIG A   1      21.922  26.851  15.665  1.00 20.00    +0.185 C 
ATOM     51 N51  LIG A   1      22.510  27.187  14.579  1.00 20.00    -0.270 NA
ATOM     52 N52  LIG A   1      22.200  27.405  16.863  1.00 20.00    -0.370 NA
ATOM     53 H53  LIG A   1      25.639  17.476  11.507  1.00 20.00    +0.023 H 
ATOM     54 H54  LIG A   1      24.496  16.207  11.982  1.00 20.00    +0.023 H 
ATOM     55 H55  LIG A   1      24.996  16.333  10.304  1.00 20.00    +0.023 H 
ATOM     56 H56  LIG A   1      22.740  17.250  10.561  1.00 20.00    +0.032 H 
ATOM     57 H57  LIG A   1      23.078  17.684  13.019  1.00 20.00    +0.032 H 
ATOM     58 H58  LIG A   1      24.030  19.097  12.662  1.00 20.00    +0.032 H 
ATOM     59 H59  LIG A   1      20.755  20.885  13.089  1.00 20.00    +0.063 H 
ATOM     60 H60  LIG A   1      23.604  21.270  12.012  1.00 20.00    +0.063 H 
ATOM     61 H61  LIG A   1      19.305  22.221  11.510  1.00 20.00    +0.066 H 
ATOM     62 H62  LIG A   1      17.711  23.905  12.906  1.00 20.00    +0.066 H 
ATOM     63 H63  LIG A   1      17.254  25.757  14.446  1.00 20.00    +0.063 H 
ATOM     64 H64  LIG A   1      16.888  27.622  15.950  1.00 20.00    +0.064 H 
ATOM     65 H65  LIG A   1      19.708  29.430  17.530  1.00 20.00    +0.160 HD
ATOM     66 H66  LIG A   1      18.241  28.333  19.001  1.00 20.00    +0.049 H 
ATOM     67 H67  LIG A   1      16.883  28.546  17.884  1.00 20.00    +0.049 H 
ATOM     68 H68  LIG A   1      18.444  30.920  19.032  1.00 20.00    +0.037 H 
ATOM     69 H69  LIG A   1      17.005  30.228  19.800  1.00 20.00    +0.037 H 
ATOM     70 H70  LIG A   1      15.167  31.131  19.134  1.00 20.00    +0.189 HD
ATOM     71 H71  LIG A   1      17.834  30.918  16.311  1.00 20.00    +0.157 HD
ATOM     72 H72  LIG A   1      16.423  31.829  16.058  1.00 20.00    +0.157 HD
ATOM     73 H73  LIG A   1      21.144  28.199  16.282  1.00 20.00    +0.064 H 
ATOM     74 H74  LIG A   1      21.516  26.327  14.762  1.00 20.00    +0.063 H 
ATOM     75 H75  LIG A   1      23.962  23.047  10.696  1.00 20.00    +0.047 H 
ATOM     76 H76  LIG A   1      23.067  26.720  11.493  1.00 20.00    +0.296 HD
ATOM     77 H77  LIG A   1      21.242  24.042   9.676  1.00 20.00    +0.028 H 
ATOM     78 H78  LIG A   1      22.778  24.430   8.944  1.00 20.00    +0.028 H 
ATOM     79 H79  LIG A   1      23.239  21.963   8.612  1.00 20.00    +0.029 H 
ATOM     80 H80  LIG A   1      22.023  22.757   7.637  1.00 20.00    +0.029 H 
ATOM     81 H81  LIG A   1      20.319  21.787   9.500  1.00 20.00    +0.050 H 
ATOM     82 H82  LIG A   1      20.750  20.951   8.006  1.00 20.00    +0.050 H 
ATOM     83 H83  LIG A   1      19.796  19.179   9.713  1.00 20.00    +0.082 H 
ATOM     84 H84  LIG A   1      20.051  18.208  11.983  1.00 20.00    +0.064 H 
ATOM     85 H85  LIG A   1      24.331  19.838  10.339  1.00 20.00    +0.057 H 
ATOM     86 H86  LIG A   1      24.446  17.721   8.340  1.00 20.00    +0.119 HD
ATOM     87 H87  LIG A   1      25.011  19.207   8.176  1.00 20.00    +0.119 HD
ATOM     88 H88  LIG A   1      19.875  19.471   7.805  1.00 20.00    +0.024 H 
ATOM     89 H89  LIG A   1      18.508  19.917   8.831  1.00 20.00    +0.024 H 
ATOM     90 H90  LIG A   1      19.706  21.142   8.355  1.00 20.00    +0.024 H 
ATOM     91 H91  LIG A   1      20.235  18.688  10.127  1.00 20.00    +0.038 H 
ATOM     92 H92  LIG A   1      21.477  19.840   9.663  1.00 20.00    +0.038 H 
ATOM     93 H93  LIG A   1      21.377  24.140  11.739  1.00 20.00    +0.055 H 
ATOM     94 H94  LIG A   1      19.117  24.230  11.137  1.00 20.00    +0.119 HD
ATOM     95 H95  LIG A   1      18.679  23.078  12.204  1.00 20.00    +0.119 HD
ATOM     96 H96  LIG A   1      20.318  22.319  13.945  1.00 20.00    +0.029 H 
ATOM     97 H97  LIG A   1      21.969  22.157  13.374  1.00 20.00    +0.029 H 
ATOM     98 H98  LIG A   1      21.894  23.541  15.350  1.00 20.00    +0.029 H 
ATOM     99 H99  LIG A   1      22.501  24.453  13.981  1.00 20.00    +0.029 H 
ATOM    100 H100 LIG A   1      19.588  24.617  14.911  1.00 20.00    +0.049 H 
ATOM    101 H101 LIG A   1      20.387  25.698  13.766  1.00 20.00    +0.049 H 
ATOM    102 H102 LIG A   1      20.964  25.425  16.659  1.00 20.00    +0.163 HD
ATOM    103 H103 LIG A   1      23.225  27.888  14.774  1.00 20.00    +0.191 HD
ATOM    104 H104 LIG A   1      22.729  28.265  16.802  1.00 20.00    +0.159 HD
ATOM    105 H105 LIG A   1      21.355  27.559  17.403  1.00 20.00    +0.159 HD
ENDROOT
TORSDOF 0
                                                                                                            
ENDMDL
MODEL 8
REMARK VINA RESULT:   -10.893      2.557     10.277
REMARK INTER + INTRA:         -10.893
REMARK INTER:                 -10.893
REMARK INTRA:                   0.000
REMARK UNBOUND:                 0.000
ROOT
ATOM      1 C1   LIG A   1      19.275  11.716  10.010  1.00 20.00    -0.060 C 
ATOM      2 C2   LIG A   1      19.195  13.124   9.382  1.00 20.00    -0.016 C 
ATOM      3 C3   LIG A   1      18.870  14.106  10.542  1.00 20.00    -0.023 C 
ATOM      4 C4   LIG A   1      18.489  15.527  10.212  1.00 20.00    -0.046 C 
ATOM      5 C5   LIG A   1      19.045  16.650  10.721  1.00 20.00    -0.059 C 
ATOM      6 C6   LIG A   1      20.498  16.799  10.647  1.00 20.00    -0.054 C 
ATOM      7 C7   LIG A   1      21.137  17.906  10.198  1.00 20.00    +0.009 C 
ATOM      8 C8   LIG A   1      20.486  19.190  10.207  1.00 20.00    +0.131 A 
ATOM      9 C9   LIG A   1      19.475  19.710   9.408  1.00 20.00    -0.015 A 
ATOM     10 C10  LIG A   1      19.232  21.042   9.823  1.00 20.00    -0.015 A 
ATOM     11 C11  LIG A   1      20.113  21.296  10.850  1.00 20.00    +0.134 A 
ATOM     12 C12  LIG A   1      20.384  22.451  11.703  1.00 20.00    +0.017 A 
ATOM     13 C13  LIG A   1      19.645  23.631  11.563  1.00 20.00    -0.049 A 
ATOM     14 C14  LIG A   1      19.892  24.742  12.380  1.00 20.00    -0.038 A 
ATOM     15 C15  LIG A   1      20.871  24.702  13.377  1.00 20.00    +0.034 A 
ATOM     16 N16  LIG A   1      21.182  25.816  14.175  1.00 20.00    -0.385 NA
ATOM     17 C17  LIG A   1      20.047  26.544  14.769  1.00 20.00    +0.022 C 
ATOM     18 C18  LIG A   1      20.526  27.883  15.328  1.00 20.00    +0.022 C 
ATOM     19 C19  LIG A   1      20.791  28.856  14.199  1.00 20.00    +0.092 C 
ATOM     20 N20  LIG A   1      20.068  29.913  14.019  1.00 20.00    -0.289 NA
ATOM     21 N21  LIG A   1      21.809  28.601  13.334  1.00 20.00    -0.388 NA
ATOM     22 C22  LIG A   1      21.640  23.538  13.487  1.00 20.00    -0.038 A 
ATOM     23 C23  LIG A   1      21.391  22.423  12.675  1.00 20.00    -0.049 A 
ATOM     24 O24  LIG A   1      20.873  20.187  11.072  1.00 20.00    -0.456 OA
ATOM     25 C25  LIG A   1      22.539  17.741   9.621  1.00 20.00    +0.085 C 
ATOM     26 C26  LIG A   1      23.486  18.622  10.427  1.00 20.00    +0.311 C 
ATOM     27 O27  LIG A   1      23.836  18.425  11.582  1.00 20.00    -0.252 OA
ATOM     28 O28  LIG A   1      23.929  19.715   9.774  1.00 20.00    -0.481 OA
ATOM     29 C29  LIG A   1      22.577  18.019   8.095  1.00 20.00    -0.034 C 
ATOM     30 C30  LIG A   1      22.039  16.908   7.164  1.00 20.00    -0.034 C 
ATOM     31 C31  LIG A   1      20.510  16.845   6.927  1.00 20.00    +0.025 C 
ATOM     32 N32  LIG A   1      19.839  15.810   7.736  1.00 20.00    -0.318 NA
ATOM     33 C33  LIG A   1      18.441  15.936   7.823  1.00 20.00    +0.007 C 
ATOM     34 C34  LIG A   1      17.761  15.724   8.966  1.00 20.00    -0.043 C 
ATOM     35 C35  LIG A   1      20.277  14.507   7.424  1.00 20.00    +0.243 C 
ATOM     36 O36  LIG A   1      20.633  14.191   6.281  1.00 20.00    -0.273 OA
ATOM     37 C37  LIG A   1      20.484  13.527   8.627  1.00 20.00    +0.088 C 
ATOM     38 N38  LIG A   1      21.185  12.330   8.077  1.00 20.00    -0.320 NA
ATOM     39 C39  LIG A   1      18.749  16.845   5.927  1.00 20.00    -0.056 C 
ATOM     40 C40  LIG A   1      18.653  16.297   7.341  1.00 20.00    -0.002 C 
ATOM     41 S41  LIG A   1      18.480  17.629   8.562  1.00 20.00    -0.087 SA
ATOM     42 C42  LIG A   1      20.180  18.095   8.766  1.00 20.00    +0.205 C 
ATOM     43 O43  LIG A   1      21.073  17.572   8.107  1.00 20.00    -0.285 OA
ATOM     44 C44  LIG A   1      20.439  19.241   9.767  1.00 20.00    +0.074 C 
ATOM     45 N45  LIG A   1      19.851  20.505   9.274  1.00 20.00    -0.321 NA
ATOM     46 C46  LIG A   1      19.937  18.907  11.181  1.00 20.00    -0.028 C 
ATOM     47 C47  LIG A   1      20.657  19.653  12.310  1.00 20.00    -0.034 C 
ATOM     48 C48  LIG A   1      20.569  21.178  12.229  1.00 20.00    +0.018 C 
ATOM     49 N49  LIG A   1      20.998  21.782  13.485  1.00 20.00    -0.357 NA
ATOM     50 C50  LIG A   1      22.301  21.849  13.843  1.00 20.00    +0.185 C 
ATOM     51 N51  LIG A   1      23.294  21.517  13.106  1.00 20.00    -0.270 NA
ATOM     52 N52  LIG A   1      22.433  22.330  15.096  1.00 20.00    -0.370 NA
ATOM     53 H53  LIG A   1      20.125  11.634  10.695  1.00 20.00    +0.023 H 
ATOM     54 H54  LIG A   1      18.363  11.491  10.575  1.00 20.00    +0.023 H 
ATOM     55 H55  LIG A   1      19.365  10.938   9.244  1.00 20.00    +0.023 H 
ATOM     56 H56  LIG A   1      18.356  13.095   8.675  1.00 20.00    +0.032 H 
ATOM     57 H57  LIG A   1      18.013  13.698  11.096  1.00 20.00    +0.032 H 
ATOM     58 H58  LIG A   1      19.700  14.093  11.261  1.00 20.00    +0.032 H 
ATOM     59 H59  LIG A   1      18.515  17.580  10.521  1.00 20.00    +0.063 H 
ATOM     60 H60  LIG A   1      21.058  15.867  10.682  1.00 20.00    +0.063 H 
ATOM     61 H61  LIG A   1      18.961  19.181   8.620  1.00 20.00    +0.066 H 
ATOM     62 H62  LIG A   1      18.503  21.727   9.417  1.00 20.00    +0.066 H 
ATOM     63 H63  LIG A   1      18.869  23.713  10.806  1.00 20.00    +0.063 H 
ATOM     64 H64  LIG A   1      19.318  25.646  12.199  1.00 20.00    +0.064 H 
ATOM     65 H65  LIG A   1      21.847  25.551  14.903  1.00 20.00    +0.160 HD
ATOM     66 H66  LIG A   1      19.632  25.938  15.584  1.00 20.00    +0.049 H 
ATOM     67 H67  LIG A   1      19.245  26.729  14.047  1.00 20.00    +0.049 H 
ATOM     68 H68  LIG A   1      21.446  27.764  15.910  1.00 20.00    +0.037 H 
ATOM     69 H69  LIG A   1      19.760  28.299  15.992  1.00 20.00    +0.037 H 
ATOM     70 H70  LIG A   1      19.344  30.000  14.739  1.00 20.00    +0.189 HD
ATOM     71 H71  LIG A   1      21.981  27.605  13.178  1.00 20.00    +0.157 HD
ATOM     72 H72  LIG A   1      21.714  29.126  12.471  1.00 20.00    +0.157 HD
ATOM     73 H73  LIG A   1      22.442  23.475  14.218  1.00 20.00    +0.064 H 
ATOM     74 H74  LIG A   1      21.999  21.531  12.812  1.00 20.00    +0.063 H 
ATOM     75 H75  LIG A   1      22.916  16.718   9.767  1.00 20.00    +0.047 H 
ATOM     76 H76  LIG A   1      24.437  20.203  10.457  1.00 20.00    +0.296 HD
ATOM     77 H77  LIG A   1      22.091  18.972   7.851  1.00 20.00    +0.028 H 
ATOM     78 H78  LIG A   1      23.633  18.154   7.815  1.00 20.00    +0.028 H 
ATOM     79 H79  LIG A   1      22.448  15.942   7.483  1.00 20.00    +0.029 H 
ATOM     80 H80  LIG A   1      22.486  17.109   6.180  1.00 20.00    +0.029 H 
ATOM     81 H81  LIG A   1      20.058  17.819   7.138  1.00 20.00    +0.050 H 
ATOM     82 H82  LIG A   1      20.323  16.622   5.867  1.00 20.00    +0.050 H 
ATOM     83 H83  LIG A   1      17.930  16.226   6.908  1.00 20.00    +0.082 H 
ATOM     84 H84  LIG A   1      16.678  15.787   9.006  1.00 20.00    +0.064 H 
ATOM     85 H85  LIG A   1      21.194  14.000   9.313  1.00 20.00    +0.057 H 
ATOM     86 H86  LIG A   1      20.584  11.937   7.347  1.00 20.00    +0.119 HD
ATOM     87 H87  LIG A   1      21.992  12.669   7.544  1.00 20.00    +0.119 HD
ATOM     88 H88  LIG A   1      18.837  16.018   5.216  1.00 20.00    +0.024 H 
ATOM     89 H89  LIG A   1      17.852  17.415   5.659  1.00 20.00    +0.024 H 
ATOM     90 H90  LIG A   1      19.624  17.491   5.795  1.00 20.00    +0.024 H 
ATOM     91 H91  LIG A   1      17.761  15.664   7.418  1.00 20.00    +0.038 H 
ATOM     92 H92  LIG A   1      19.510  15.659   7.576  1.00 20.00    +0.038 H 
ATOM     93 H93  LIG A   1      21.528  19.371   9.803  1.00 20.00    +0.055 H 
ATOM     94 H94  LIG A   1      20.276  20.737   8.374  1.00 20.00    +0.119 HD
ATOM     95 H95  LIG A   1      18.858  20.357   9.083  1.00 20.00    +0.119 HD
ATOM     96 H96  LIG A   1      18.860  19.103  11.256  1.00 20.00    +0.029 H 
ATOM     97 H97  LIG A   1      20.064  17.832  11.365  1.00 20.00    +0.029 H 
ATOM     98 H98  LIG A   1      20.230  19.313  13.263  1.00 20.00    +0.029 H 
ATOM     99 H99  LIG A   1      21.710  19.346  12.323  1.00 20.00    +0.029 H 
ATOM    100 H100 LIG A   1      19.534  21.483  12.049  1.00 20.00    +0.049 H 
ATOM    101 H101 LIG A   1      21.175  21.567  11.404  1.00 20.00    +0.049 H 
ATOM    102 H102 LIG A   1      20.379  21.575  14.258  1.00 20.00    +0.163 HD
ATOM    103 H103 LIG A   1      24.165  21.635  13.623  1.00 20.00    +0.191 HD
ATOM    104 H104 LIG A   1      23.372  22.633  15.320  1.00 20.00    +0.159 HD
ATOM    105 H105 LIG A   1      21.777  23.084  15.273  1.00 20.00    +0.159 HD
ENDROOT
TORSDOF 0
                                                                                                            
ENDMDL
MODEL 9
REMARK VINA RESULT:   -10.803      2.516      9.905
REMARK INTER + INTRA:         -10.803
REMARK INTER:                 -10.803
REMARK INTRA:                   0.000
REMARK UNBOUND:                 0.000
ROOT
ATOM      1 C1   LIG A   1      21.385  14.273   9.862  1.00 20.00    -0.060 C 
ATOM      2 C2   LIG A   1      21.067  15.734   9.478  1.00 20.00    -0.016 C 
ATOM      3 C3   LIG A   1      20.616  16.444  10.785  1.00 20.00    -0.023 C 
ATOM      4 C4   LIG A   1      20.005  17.820  10.695  1.00 20.00    -0.046 C 
ATOM      5 C5   LIG A   1      20.386  18.918  11.389  1.00 20.00    -0.059 C 
ATOM      6 C6   LIG A   1      21.794  19.309  11.347  1.00 20.00    -0.054 C 
ATOM      7 C7   LIG A   1      22.238  20.564  11.092  1.00 20.00    +0.009 C 
ATOM      8 C8   LIG A   1      21.390  21.706  11.314  1.00 20.00    +0.131 A 
ATOM      9 C9   LIG A   1      20.291  22.182  10.609  1.00 20.00    -0.015 A 
ATOM     10 C10  LIG A   1      19.849  23.370  11.240  1.00 20.00    -0.015 A 
ATOM     11 C11  LIG A   1      20.701  23.588  12.300  1.00 20.00    +0.134 A 
ATOM     12 C12  LIG A   1      20.803  24.614  13.335  1.00 20.00    +0.017 A 
ATOM     13 C13  LIG A   1      19.881  25.666  13.391  1.00 20.00    -0.049 A 
ATOM     14 C14  LIG A   1      19.966  26.650  14.385  1.00 20.00    -0.038 A 
ATOM     15 C15  LIG A   1      20.961  26.604  15.365  1.00 20.00    +0.034 A 
ATOM     16 N16  LIG A   1      21.109  27.606  16.339  1.00 20.00    -0.385 NA
ATOM     17 C17  LIG A   1      19.886  28.032  17.042  1.00 20.00    +0.022 C 
ATOM     18 C18  LIG A   1      20.157  29.319  17.820  1.00 20.00    +0.022 C 
ATOM     19 C19  LIG A   1      20.237  30.496  16.871  1.00 20.00    +0.092 C 
ATOM     20 N20  LIG A   1      19.351  31.437  16.867  1.00 20.00    -0.289 NA
ATOM     21 N21  LIG A   1      21.263  30.555  15.980  1.00 20.00    -0.388 NA
ATOM     22 C22  LIG A   1      21.909  25.577  15.282  1.00 20.00    -0.038 A 
ATOM     23 C23  LIG A   1      21.823  24.588  14.293  1.00 20.00    -0.049 A 
ATOM     24 O24  LIG A   1      21.633  22.594  12.336  1.00 20.00    -0.456 OA
ATOM     25 C25  LIG A   1      23.635  20.725  10.503  1.00 20.00    +0.085 C 
ATOM     26 C26  LIG A   1      24.447  21.601  11.449  1.00 20.00    +0.311 C 
ATOM     27 O27  LIG A   1      24.850  21.274  12.556  1.00 20.00    -0.252 OA
ATOM     28 O28  LIG A   1      24.695  22.845  10.991  1.00 20.00    -0.481 OA
ATOM     29 C29  LIG A   1      23.594  21.255   9.045  1.00 20.00    -0.034 C 
ATOM     30 C30  LIG A   1      23.219  20.243   7.939  1.00 20.00    -0.034 C 
ATOM     31 C31  LIG A   1      21.715  19.974   7.687  1.00 20.00    +0.025 C 
ATOM     32 N32  LIG A   1      21.237  18.724   8.308  1.00 20.00    -0.318 NA
ATOM     33 C33  LIG A   1      19.839  18.607   8.409  1.00 20.00    +0.007 C 
ATOM     34 C34  LIG A   1      19.227  18.102   9.497  1.00 20.00    -0.043 C 
ATOM     35 C35  LIG A   1      21.870  17.579   7.784  1.00 20.00    +0.243 C 
ATOM     36 O36  LIG A   1      22.245  17.519   6.607  1.00 20.00    -0.273 OA
ATOM     37 C37  LIG A   1      22.257  16.460   8.807  1.00 20.00    +0.088 C 
ATOM     38 N38  LIG A   1      23.128  15.500   8.068  1.00 20.00    -0.320 NA
ATOM     39 C39  LIG A   1      19.954  19.856   6.694  1.00 20.00    -0.056 C 
ATOM     40 C40  LIG A   1      19.979  19.072   7.995  1.00 20.00    -0.002 C 
ATOM     41 S41  LIG A   1      19.623  20.138   9.422  1.00 20.00    -0.087 SA
ATOM     42 C42  LIG A   1      21.231  20.831   9.709  1.00 20.00    +0.205 C 
ATOM     43 O43  LIG A   1      22.181  20.576   8.975  1.00 20.00    -0.285 OA
ATOM     44 C44  LIG A   1      21.327  21.821  10.889  1.00 20.00    +0.074 C 
ATOM     45 N45  LIG A   1      20.532  23.038  10.612  1.00 20.00    -0.321 NA
ATOM     46 C46  LIG A   1      20.916  21.180  12.224  1.00 20.00    -0.028 C 
ATOM     47 C47  LIG A   1      21.533  21.835  13.465  1.00 20.00    -0.034 C 
ATOM     48 C48  LIG A   1      21.201  23.318  13.641  1.00 20.00    +0.018 C 
ATOM     49 N49  LIG A   1      21.556  23.766  14.982  1.00 20.00    -0.357 NA
ATOM     50 C50  LIG A   1      22.839  23.982  15.352  1.00 20.00    +0.185 C 
ATOM     51 N51  LIG A   1      23.855  23.942  14.575  1.00 20.00    -0.270 NA
ATOM     52 N52  LIG A   1      22.922  24.263  16.669  1.00 20.00    -0.370 NA
ATOM     53 H53  LIG A   1      22.253  14.216  10.527  1.00 20.00    +0.023 H 
ATOM     54 H54  LIG A   1      20.534  13.813  10.377  1.00 20.00    +0.023 H 
ATOM     55 H55  LIG A   1      21.581  13.658   8.977  1.00 20.00    +0.023 H 
ATOM     56 H56  LIG A   1      20.227  15.688   8.772  1.00 20.00    +0.032 H 
ATOM     57 H57  LIG A   1      19.847  15.817  11.258  1.00 20.00    +0.032 H 
ATOM     58 H58  LIG A   1      21.453  16.446  11.495  1.00 20.00    +0.032 H 
ATOM     59 H59  LIG A   1      19.710  19.770  11.345  1.00 20.00    +0.063 H 
ATOM     60 H60  LIG A   1      22.497  18.487  11.228  1.00 20.00    +0.063 H 
ATOM     61 H61  LIG A   1      19.851  21.716   9.741  1.00 20.00    +0.066 H 
ATOM     62 H62  LIG A   1      19.010  23.986  10.952  1.00 20.00    +0.066 H 
ATOM     63 H63  LIG A   1      19.086  25.746  12.655  1.00 20.00    +0.063 H 
ATOM     64 H64  LIG A   1      19.252  27.468  14.354  1.00 20.00    +0.064 H 
ATOM     65 H65  LIG A   1      21.824  27.334  17.016  1.00 20.00    +0.160 HD
ATOM     66 H66  LIG A   1      19.591  27.240  17.742  1.00 20.00    +0.049 H 
ATOM     67 H67  LIG A   1      19.048  28.203  16.358  1.00 20.00    +0.049 H 
ATOM     68 H68  LIG A   1      21.098  29.255  18.378  1.00 20.00    +0.037 H 
ATOM     69 H69  LIG A   1      19.350  29.490  18.541  1.00 20.00    +0.037 H 
ATOM     70 H70  LIG A   1      18.639  31.286  17.589  1.00 20.00    +0.189 HD
ATOM     71 H71  LIG A   1      21.589  29.640  15.660  1.00 20.00    +0.157 HD
ATOM     72 H72  LIG A   1      21.066  31.194  15.217  1.00 20.00    +0.157 HD
ATOM     73 H73  LIG A   1      22.727  25.524  15.995  1.00 20.00    +0.064 H 
ATOM     74 H74  LIG A   1      22.569  23.795  14.282  1.00 20.00    +0.063 H 
ATOM     75 H75  LIG A   1      24.174  19.767  10.477  1.00 20.00    +0.047 H 
ATOM     76 H76  LIG A   1      25.133  23.288  11.748  1.00 20.00    +0.296 HD
ATOM     77 H77  LIG A   1      22.956  22.145   8.962  1.00 20.00    +0.028 H 
ATOM     78 H78  LIG A   1      24.607  21.604   8.796  1.00 20.00    +0.028 H 
ATOM     79 H79  LIG A   1      23.784  19.316   8.093  1.00 20.00    +0.029 H 
ATOM     80 H80  LIG A   1      23.606  20.674   7.004  1.00 20.00    +0.029 H 
ATOM     81 H81  LIG A   1      21.118  20.813   8.056  1.00 20.00    +0.050 H 
ATOM     82 H82  LIG A   1      21.541  19.903   6.605  1.00 20.00    +0.050 H 
ATOM     83 H83  LIG A   1      19.267  18.959   7.553  1.00 20.00    +0.082 H 
ATOM     84 H84  LIG A   1      18.149  17.981   9.542  1.00 20.00    +0.064 H 
ATOM     85 H85  LIG A   1      22.899  16.921   9.566  1.00 20.00    +0.057 H 
ATOM     86 H86  LIG A   1      22.581  15.142   7.279  1.00 20.00    +0.119 HD
ATOM     87 H87  LIG A   1      23.858  16.048   7.602  1.00 20.00    +0.119 HD
ATOM     88 H88  LIG A   1      20.157  19.184   5.854  1.00 20.00    +0.024 H 
ATOM     89 H89  LIG A   1      18.972  20.311   6.521  1.00 20.00    +0.024 H 
ATOM     90 H90  LIG A   1      20.711  20.648   6.676  1.00 20.00    +0.024 H 
ATOM     91 H91  LIG A   1      19.201  18.300   7.961  1.00 20.00    +0.038 H 
ATOM     92 H92  LIG A   1      20.932  18.551   8.124  1.00 20.00    +0.038 H 
ATOM     93 H93  LIG A   1      22.381  22.118  10.951  1.00 20.00    +0.055 H 
ATOM     94 H94  LIG A   1      20.894  23.482   9.765  1.00 20.00    +0.119 HD
ATOM     95 H95  LIG A   1      19.572  22.766  10.394  1.00 20.00    +0.119 HD
ATOM     96 H96  LIG A   1      19.824  21.185  12.326  1.00 20.00    +0.029 H 
ATOM     97 H97  LIG A   1      21.217  20.125  12.226  1.00 20.00    +0.029 H 
ATOM     98 H98  LIG A   1      21.188  21.277  14.346  1.00 20.00    +0.029 H 
ATOM     99 H99  LIG A   1      22.622  21.704  13.432  1.00 20.00    +0.029 H 
ATOM    100 H100 LIG A   1      20.126  23.478  13.510  1.00 20.00    +0.049 H 
ATOM    101 H101 LIG A   1      21.718  23.932  12.896  1.00 20.00    +0.049 H 
ATOM    102 H102 LIG A   1      20.996  23.336  15.707  1.00 20.00    +0.163 HD
ATOM    103 H103 LIG A   1      24.708  24.111  15.109  1.00 20.00    +0.191 HD
ATOM    104 H104 LIG A   1      23.804  24.672  16.945  1.00 20.00    +0.159 HD
ATOM    105 H105 LIG A   1      22.157  24.861  16.967  1.00 20.00    +0.159 HD
ENDROOT
TORSDOF 0
                                                                                                            
ENDMDL
