MODEL 1
REMARK VINA RESULT:   -11.581      0.000      0.000
REMARK INTER + INTRA:         -11.581
REMARK INTER:                 -11.581
REMARK INTRA:                   0.000
REMARK UNBOUND:                 0.000
ROOT
ATOM      1 C1   LIG A   1      18.084  15.413  11.083  1.00 20.00    -0.060 C 
ATOM      2 C2   LIG A   1      18.985  16.610  10.719  1.00 20.00    -0.016 C 
ATOM      3 C3   LIG A   1      20.450  16.283  11.169  1.00 20.00    -0.023 C 
ATOM      4 C4   LIG A   1      21.411  16.007  10.041  1.00 20.00    -0.044 A 
ATOM      5 C5   LIG A   1      21.319  14.839   9.284  1.00 20.00    -0.058 A 
ATOM      6 C6   LIG A   1      21.909  14.788   8.022  1.00 20.00    -0.054 A 
ATOM      7 C7   LIG A   1      22.561  15.915   7.490  1.00 20.00    +0.009 A 
ATOM      8 C8   LIG A   1      22.779  17.024   8.328  1.00 20.00    +0.130 A 
ATOM      9 C9   LIG A   1      22.264  17.034   9.625  1.00 20.00    -0.016 A 
ATOM     10 O10  LIG A   1      23.396  18.134   7.788  1.00 20.00    -0.464 OA
ATOM     11 C11  LIG A   1      23.006  19.383   8.225  1.00 20.00    +0.104 C 
ATOM     12 C12  LIG A   1      21.856  20.044   7.964  1.00 20.00    +0.082 C 
ATOM     13 C13  LIG A   1      21.683  21.428   8.477  1.00 20.00    -0.010 A 
ATOM     14 C14  LIG A   1      22.059  21.757   9.786  1.00 20.00    -0.052 A 
ATOM     15 C15  LIG A   1      21.901  23.058  10.279  1.00 20.00    -0.038 A 
ATOM     16 C16  LIG A   1      21.364  24.079   9.488  1.00 20.00    +0.034 A 
ATOM     17 N17  LIG A   1      21.180  25.332  10.075  1.00 20.00    -0.385 NA
ATOM     18 C18  LIG A   1      20.711  26.464   9.285  1.00 20.00    +0.016 C 
ATOM     19 C19  LIG A   1      20.588  27.720  10.155  1.00 20.00    -0.023 C 
ATOM     20 C20  LIG A   1      19.485  27.645  11.222  1.00 20.00    -0.003 C 
ATOM     21 N21  LIG A   1      19.665  26.611  12.246  1.00 20.00    -0.317 NA
ATOM     22 C22  LIG A   1      20.740  26.884  13.200  1.00 20.00    -0.005 C 
ATOM     23 C23  LIG A   1      20.395  27.929  14.265  1.00 20.00    -0.039 C 
ATOM     24 C24  LIG A   1      19.465  27.442  15.382  1.00 20.00    -0.040 C 
ATOM     25 C25  LIG A   1      18.063  27.051  14.918  1.00 20.00    -0.008 C 
ATOM     26 N26  LIG A   1      17.204  26.828  16.084  1.00 20.00    -0.330 NA
ATOM     27 C27  LIG A   1      20.933  23.738   8.206  1.00 20.00    -0.038 A 
ATOM     28 C28  LIG A   1      21.105  22.440   7.699  1.00 20.00    -0.052 A 
ATOM     29 C29  LIG A   1      20.831  19.420   7.052  1.00 20.00    +0.264 C 
ATOM     30 O30  LIG A   1      20.596  19.927   5.955  1.00 20.00    -0.268 OA
ATOM     31 N31  LIG A   1      20.216  18.253   7.494  1.00 20.00    -0.277 NA
ATOM     32 C32  LIG A   1      19.829  17.275   6.466  1.00 20.00    +0.029 C 
ATOM     33 C33  LIG A   1      20.673  17.129   5.178  1.00 20.00    -0.034 C 
ATOM     34 C34  LIG A   1      22.213  17.086   5.228  1.00 20.00    -0.034 C 
ATOM     35 C35  LIG A   1      22.894  15.930   6.007  1.00 20.00    +0.085 C 
ATOM     36 C36  LIG A   1      24.403  15.909   5.767  1.00 20.00    +0.311 C 
ATOM     37 O37  LIG A   1      25.293  15.813   6.597  1.00 20.00    -0.252 OA
ATOM     38 O38  LIG A   1      24.725  15.925   4.455  1.00 20.00    -0.481 OA
ATOM     39 C39  LIG A   1      19.641  18.242   8.778  1.00 20.00    +0.246 C 
ATOM     40 O40  LIG A   1      19.747  19.184   9.570  1.00 20.00    -0.273 OA
ATOM     41 C41  LIG A   1      18.777  17.016   9.218  1.00 20.00    +0.088 C 
ATOM     42 N42  LIG A   1      17.356  17.382   8.988  1.00 20.00    -0.320 NA
ATOM     43 N43  LIG A   1      18.949  22.551  11.601  1.00 20.00    -0.287 NA
ATOM     44 C44  LIG A   1      20.053  23.221  11.505  1.00 20.00    +0.110 C 
ATOM     45 N45  LIG A   1      19.982  24.530  11.132  1.00 20.00    -0.386 NA
ATOM     46 C46  LIG A   1      21.412  22.565  11.755  1.00 20.00    +0.075 C 
ATOM     47 N47  LIG A   1      21.693  21.703  10.629  1.00 20.00    -0.348 NA
ATOM     48 C48  LIG A   1      21.169  20.425  10.561  1.00 20.00    +0.237 C 
ATOM     49 O49  LIG A   1      20.584  19.891  11.498  1.00 20.00    -0.273 OA
ATOM     50 C50  LIG A   1      21.416  19.762   9.197  1.00 20.00    +0.087 C 
ATOM     51 C51  LIG A   1      20.538  18.546   8.916  1.00 20.00    -0.027 C 
ATOM     52 C52  LIG A   1      19.974  18.780   7.520  1.00 20.00    -0.039 C 
ATOM     53 C53  LIG A   1      20.840  19.880   6.943  1.00 20.00    -0.004 C 
ATOM     54 N54  LIG A   1      21.128  20.734   8.101  1.00 20.00    -0.306 NA
ATOM     55 H55  LIG A   1      17.024  15.646  10.936  1.00 20.00    +0.023 H 
ATOM     56 H56  LIG A   1      18.327  14.536  10.476  1.00 20.00    +0.023 H 
ATOM     57 H57  LIG A   1      18.204  15.142  12.138  1.00 20.00    +0.023 H 
ATOM     58 H58  LIG A   1      18.651  17.445  11.352  1.00 20.00    +0.032 H 
ATOM     59 H59  LIG A   1      20.820  17.136  11.755  1.00 20.00    +0.032 H 
ATOM     60 H60  LIG A   1      20.476  15.435  11.866  1.00 20.00    +0.032 H 
ATOM     61 H61  LIG A   1      20.707  14.007   9.625  1.00 20.00    +0.063 H 
ATOM     62 H62  LIG A   1      21.764  13.895   7.417  1.00 20.00    +0.063 H 
ATOM     63 H63  LIG A   1      22.382  17.915  10.252  1.00 20.00    +0.067 H 
ATOM     64 H64  LIG A   1      23.829  19.815   8.783  1.00 20.00    +0.105 H 
ATOM     65 H65  LIG A   1      22.452  20.997  10.458  1.00 20.00    +0.063 H 
ATOM     66 H66  LIG A   1      22.189  23.262  11.309  1.00 20.00    +0.064 H 
ATOM     67 H67  LIG A   1      21.961  25.566  10.687  1.00 20.00    +0.160 HD
ATOM     68 H68  LIG A   1      21.420  26.669   8.476  1.00 20.00    +0.049 H 
ATOM     69 H69  LIG A   1      19.734  26.244   8.838  1.00 20.00    +0.049 H 
ATOM     70 H70  LIG A   1      20.353  28.563   9.493  1.00 20.00    +0.030 H 
ATOM     71 H71  LIG A   1      21.554  27.954  10.614  1.00 20.00    +0.030 H 
ATOM     72 H72  LIG A   1      18.535  27.438  10.716  1.00 20.00    +0.043 H 
ATOM     73 H73  LIG A   1      19.359  28.629  11.687  1.00 20.00    +0.043 H 
ATOM     74 H74  LIG A   1      19.888  25.736  11.749  1.00 20.00    +0.122 HD
ATOM     75 H75  LIG A   1      20.986  25.943  13.709  1.00 20.00    +0.043 H 
ATOM     76 H76  LIG A   1      21.655  27.181  12.679  1.00 20.00    +0.043 H 
ATOM     77 H77  LIG A   1      19.981  28.835  13.810  1.00 20.00    +0.028 H 
ATOM     78 H78  LIG A   1      21.337  28.240  14.737  1.00 20.00    +0.028 H 
ATOM     79 H79  LIG A   1      19.393  28.247  16.123  1.00 20.00    +0.028 H 
ATOM     80 H80  LIG A   1      19.933  26.593  15.896  1.00 20.00    +0.028 H 
ATOM     81 H81  LIG A   1      17.628  27.840  14.297  1.00 20.00    +0.043 H 
ATOM     82 H82  LIG A   1      18.090  26.124  14.337  1.00 20.00    +0.043 H 
ATOM     83 H83  LIG A   1      16.260  26.607  15.766  1.00 20.00    +0.118 HD
ATOM     84 H84  LIG A   1      17.131  27.697  16.613  1.00 20.00    +0.118 HD
ATOM     85 H85  LIG A   1      20.461  24.470   7.558  1.00 20.00    +0.064 H 
ATOM     86 H86  LIG A   1      20.775  22.242   6.681  1.00 20.00    +0.063 H 
ATOM     87 H87  LIG A   1      19.795  16.282   6.911  1.00 20.00    +0.050 H 
ATOM     88 H88  LIG A   1      18.796  17.510   6.179  1.00 20.00    +0.050 H 
ATOM     89 H89  LIG A   1      20.394  17.944   4.497  1.00 20.00    +0.029 H 
ATOM     90 H90  LIG A   1      20.330  16.219   4.669  1.00 20.00    +0.029 H 
ATOM     91 H91  LIG A   1      22.529  17.005   4.180  1.00 20.00    +0.028 H 
ATOM     92 H92  LIG A   1      22.606  18.057   5.538  1.00 20.00    +0.028 H 
ATOM     93 H93  LIG A   1      22.529  14.990   5.573  1.00 20.00    +0.047 H 
ATOM     94 H94  LIG A   1      25.705  15.882   4.456  1.00 20.00    +0.296 HD
ATOM     95 H95  LIG A   1      18.974  16.133   8.615  1.00 20.00    +0.057 H 
ATOM     96 H96  LIG A   1      17.132  18.167   9.607  1.00 20.00    +0.119 HD
ATOM     97 H97  LIG A   1      17.239  17.757   8.044  1.00 20.00    +0.119 HD
ATOM     98 H98  LIG A   1      19.171  21.569  11.847  1.00 20.00    +0.189 HD
ATOM     99 H99  LIG A   1      19.031  24.883  11.199  1.00 20.00    +0.157 HD
ATOM    100 H100 LIG A   1      20.661  25.155  11.556  1.00 20.00    +0.157 HD
ATOM    101 H101 LIG A   1      22.195  23.323  11.808  1.00 20.00    +0.058 H 
ATOM    102 H102 LIG A   1      21.385  21.991  12.683  1.00 20.00    +0.058 H 
ATOM    103 H103 LIG A   1      21.881  22.129   9.724  1.00 20.00    +0.163 HD
ATOM    104 H104 LIG A   1      22.475  19.478   9.156  1.00 20.00    +0.057 H 
ATOM    105 H105 LIG A   1      21.144  17.634   8.925  1.00 20.00    +0.029 H 
ATOM    106 H106 LIG A   1      19.723  18.409   9.633  1.00 20.00    +0.029 H 
ATOM    107 H107 LIG A   1      18.932  19.117   7.596  1.00 20.00    +0.028 H 
ATOM    108 H108 LIG A   1      19.992  17.873   6.909  1.00 20.00    +0.028 H 
ATOM    109 H109 LIG A   1      21.774  19.477   6.533  1.00 20.00    +0.043 H 
ATOM    110 H110 LIG A   1      20.328  20.434   6.151  1.00 20.00    +0.043 H 
ATOM    111 H111 LIG A   1      20.254  21.213   8.344  1.00 20.00    +0.123 HD
ENDROOT
TORSDOF 0
                                                                                                                  
ENDMDL
MODEL 2
REMARK VINA RESULT:   -11.430      3.176      9.899
REMARK INTER + INTRA:         -11.430
REMARK INTER:                 -11.430
REMARK INTRA:                   0.000
REMARK UNBOUND:                 0.000
ROOT
ATOM      1 C1   LIG A   1      25.334  24.239  15.508  1.00 20.00    -0.060 C 
ATOM      2 C2   LIG A   1      24.114  23.744  14.704  1.00 20.00    -0.016 C 
ATOM      3 C3   LIG A   1      22.923  23.523  15.697  1.00 20.00    -0.023 C 
ATOM      4 C4   LIG A   1      21.810  24.534  15.584  1.00 20.00    -0.044 A 
ATOM      5 C5   LIG A   1      21.989  25.854  15.999  1.00 20.00    -0.058 A 
ATOM      6 C6   LIG A   1      21.140  26.849  15.516  1.00 20.00    -0.054 A 
ATOM      7 C7   LIG A   1      20.131  26.540  14.587  1.00 20.00    +0.009 A 
ATOM      8 C8   LIG A   1      19.867  25.188  14.304  1.00 20.00    +0.130 A 
ATOM      9 C9   LIG A   1      20.664  24.187  14.863  1.00 20.00    -0.016 A 
ATOM     10 O10  LIG A   1      18.893  24.898  13.371  1.00 20.00    -0.464 OA
ATOM     11 C11  LIG A   1      19.071  23.802  12.551  1.00 20.00    +0.104 C 
ATOM     12 C12  LIG A   1      19.933  23.653  11.521  1.00 20.00    +0.082 C 
ATOM     13 C13  LIG A   1      19.892  22.405  10.716  1.00 20.00    -0.010 A 
ATOM     14 C14  LIG A   1      19.778  21.156  11.342  1.00 20.00    -0.052 A 
ATOM     15 C15  LIG A   1      19.738  19.973  10.592  1.00 20.00    -0.038 A 
ATOM     16 C16  LIG A   1      19.810  19.989   9.196  1.00 20.00    +0.034 A 
ATOM     17 N17  LIG A   1      19.830  18.764   8.528  1.00 20.00    -0.385 NA
ATOM     18 C18  LIG A   1      19.812  18.708   7.070  1.00 20.00    +0.016 C 
ATOM     19 C19  LIG A   1      19.841  17.256   6.583  1.00 20.00    -0.023 C 
ATOM     20 C20  LIG A   1      21.155  16.516   6.876  1.00 20.00    -0.003 C 
ATOM     21 N21  LIG A   1      21.478  16.341   8.296  1.00 20.00    -0.317 NA
ATOM     22 C22  LIG A   1      20.634  15.372   8.995  1.00 20.00    -0.005 C 
ATOM     23 C23  LIG A   1      20.969  13.907   8.702  1.00 20.00    -0.039 C 
ATOM     24 C24  LIG A   1      22.230  13.374   9.392  1.00 20.00    -0.040 C 
ATOM     25 C25  LIG A   1      23.529  14.046   8.950  1.00 20.00    -0.008 C 
ATOM     26 N26  LIG A   1      24.673  13.308   9.494  1.00 20.00    -0.330 NA
ATOM     27 C27  LIG A   1      19.986  21.228   8.577  1.00 20.00    -0.038 A 
ATOM     28 C28  LIG A   1      20.008  22.419   9.320  1.00 20.00    -0.052 A 
ATOM     29 C29  LIG A   1      20.824  24.804  11.126  1.00 20.00    +0.264 C 
ATOM     30 O30  LIG A   1      20.659  25.363  10.042  1.00 20.00    -0.268 OA
ATOM     31 N31  LIG A   1      21.786  25.205  12.047  1.00 20.00    -0.277 NA
ATOM     32 C32  LIG A   1      22.132  26.634  12.066  1.00 20.00    +0.029 C 
ATOM     33 C33  LIG A   1      21.061  27.696  11.726  1.00 20.00    -0.034 C 
ATOM     34 C34  LIG A   1      19.634  27.611  12.302  1.00 20.00    -0.034 C 
ATOM     35 C35  LIG A   1      19.455  27.680  13.842  1.00 20.00    +0.085 C 
ATOM     36 C36  LIG A   1      17.983  27.810  14.227  1.00 20.00    +0.311 C 
ATOM     37 O37  LIG A   1      17.369  27.176  15.070  1.00 20.00    -0.252 OA
ATOM     38 O38  LIG A   1      17.357  28.816  13.577  1.00 20.00    -0.481 OA
ATOM     39 C39  LIG A   1      22.641  24.230  12.594  1.00 20.00    +0.246 C 
ATOM     40 O40  LIG A   1      22.510  23.022  12.374  1.00 20.00    -0.273 OA
ATOM     41 C41  LIG A   1      23.850  24.682  13.475  1.00 20.00    +0.088 C 
ATOM     42 N42  LIG A   1      25.045  24.704  12.592  1.00 20.00    -0.320 NA
ATOM     43 N43  LIG A   1      22.957  19.386  10.736  1.00 20.00    -0.287 NA
ATOM     44 C44  LIG A   1      21.736  18.997  10.548  1.00 20.00    +0.110 C 
ATOM     45 N45  LIG A   1      21.402  18.485   9.330  1.00 20.00    -0.386 NA
ATOM     46 C46  LIG A   1      20.673  19.141  11.639  1.00 20.00    +0.075 C 
ATOM     47 N47  LIG A   1      20.340  20.544  11.739  1.00 20.00    -0.348 NA
ATOM     48 C48  LIG A   1      21.119  21.411  12.484  1.00 20.00    +0.237 C 
ATOM     49 O49  LIG A   1      22.023  21.032  13.221  1.00 20.00    -0.273 OA
ATOM     50 C50  LIG A   1      20.712  22.880  12.288  1.00 20.00    +0.087 C 
ATOM     51 C51  LIG A   1      21.758  23.892  12.745  1.00 20.00    -0.027 C 
ATOM     52 C52  LIG A   1      21.895  24.871  11.585  1.00 20.00    -0.039 C 
ATOM     53 C53  LIG A   1      20.680  24.605  10.722  1.00 20.00    -0.004 C 
ATOM     54 N54  LIG A   1      20.488  23.154  10.836  1.00 20.00    -0.306 NA
ATOM     55 H55  LIG A   1      26.240  24.261  14.894  1.00 20.00    +0.023 H 
ATOM     56 H56  LIG A   1      25.166  25.246  15.902  1.00 20.00    +0.023 H 
ATOM     57 H57  LIG A   1      25.541  23.572  16.352  1.00 20.00    +0.023 H 
ATOM     58 H58  LIG A   1      24.385  22.747  14.326  1.00 20.00    +0.032 H 
ATOM     59 H59  LIG A   1      22.515  22.519  15.515  1.00 20.00    +0.032 H 
ATOM     60 H60  LIG A   1      23.268  23.498  16.739  1.00 20.00    +0.032 H 
ATOM     61 H61  LIG A   1      22.845  26.129  16.612  1.00 20.00    +0.063 H 
ATOM     62 H62  LIG A   1      21.341  27.882  15.793  1.00 20.00    +0.063 H 
ATOM     63 H63  LIG A   1      20.496  23.145  14.598  1.00 20.00    +0.067 H 
ATOM     64 H64  LIG A   1      18.329  23.058  12.821  1.00 20.00    +0.105 H 
ATOM     65 H65  LIG A   1      19.751  21.079  12.426  1.00 20.00    +0.063 H 
ATOM     66 H66  LIG A   1      19.668  19.024  11.122  1.00 20.00    +0.064 H 
ATOM     67 H67  LIG A   1      19.188  18.102   8.963  1.00 20.00    +0.160 HD
ATOM     68 H68  LIG A   1      18.899  19.183   6.694  1.00 20.00    +0.049 H 
ATOM     69 H69  LIG A   1      20.675  19.241   6.654  1.00 20.00    +0.049 H 
ATOM     70 H70  LIG A   1      19.702  17.266   5.494  1.00 20.00    +0.030 H 
ATOM     71 H71  LIG A   1      18.988  16.704   6.993  1.00 20.00    +0.030 H 
ATOM     72 H72  LIG A   1      21.976  17.086   6.425  1.00 20.00    +0.043 H 
ATOM     73 H73  LIG A   1      21.154  15.550   6.361  1.00 20.00    +0.043 H 
ATOM     74 H74  LIG A   1      21.356  17.260   8.744  1.00 20.00    +0.122 HD
ATOM     75 H75  LIG A   1      20.748  15.542  10.074  1.00 20.00    +0.043 H 
ATOM     76 H76  LIG A   1      19.576  15.556   8.782  1.00 20.00    +0.043 H 
ATOM     77 H77  LIG A   1      21.034  13.725   7.623  1.00 20.00    +0.028 H 
ATOM     78 H78  LIG A   1      20.124  13.300   9.053  1.00 20.00    +0.028 H 
ATOM     79 H79  LIG A   1      22.287  12.298   9.185  1.00 20.00    +0.028 H 
ATOM     80 H80  LIG A   1      22.116  13.472  10.478  1.00 20.00    +0.028 H 
ATOM     81 H81  LIG A   1      23.602  14.067   7.858  1.00 20.00    +0.043 H 
ATOM     82 H82  LIG A   1      23.583  15.073   9.324  1.00 20.00    +0.043 H 
ATOM     83 H83  LIG A   1      25.536  13.739   9.162  1.00 20.00    +0.118 HD
ATOM     84 H84  LIG A   1      24.664  12.360   9.118  1.00 20.00    +0.118 HD
ATOM     85 H85  LIG A   1      20.100  21.307   7.500  1.00 20.00    +0.064 H 
ATOM     86 H86  LIG A   1      20.120  23.356   8.779  1.00 20.00    +0.063 H 
ATOM     87 H87  LIG A   1      22.507  26.899  13.054  1.00 20.00    +0.050 H 
ATOM     88 H88  LIG A   1      22.979  26.763  11.380  1.00 20.00    +0.050 H 
ATOM     89 H89  LIG A   1      20.965  27.741  10.632  1.00 20.00    +0.029 H 
ATOM     90 H90  LIG A   1      21.475  28.674  12.003  1.00 20.00    +0.029 H 
ATOM     91 H91  LIG A   1      19.102  28.469  11.873  1.00 20.00    +0.028 H 
ATOM     92 H92  LIG A   1      19.110  26.750  11.882  1.00 20.00    +0.028 H 
ATOM     93 H93  LIG A   1      19.916  28.618  14.178  1.00 20.00    +0.047 H 
ATOM     94 H94  LIG A   1      16.446  28.796  13.937  1.00 20.00    +0.296 HD
ATOM     95 H95  LIG A   1      23.727  25.691  13.860  1.00 20.00    +0.057 H 
ATOM     96 H96  LIG A   1      25.220  23.744  12.281  1.00 20.00    +0.119 HD
ATOM     97 H97  LIG A   1      24.837  25.219  11.735  1.00 20.00    +0.119 HD
ATOM     98 H98  LIG A   1      23.040  19.789  11.687  1.00 20.00    +0.189 HD
ATOM     99 H99  LIG A   1      22.230  18.260   8.784  1.00 20.00    +0.157 HD
ATOM    100 H100 LIG A   1      20.719  17.735   9.330  1.00 20.00    +0.157 HD
ATOM    101 H101 LIG A   1      19.770  18.595  11.362  1.00 20.00    +0.058 H 
ATOM    102 H102 LIG A   1      21.060  18.767  12.589  1.00 20.00    +0.058 H 
ATOM    103 H103 LIG A   1      19.843  20.983  10.967  1.00 20.00    +0.163 HD
ATOM    104 H104 LIG A   1      19.773  23.037  12.833  1.00 20.00    +0.057 H 
ATOM    105 H105 LIG A   1      21.406  24.419  13.638  1.00 20.00    +0.029 H 
ATOM    106 H106 LIG A   1      22.731  23.452  12.983  1.00 20.00    +0.029 H 
ATOM    107 H107 LIG A   1      22.814  24.653  11.027  1.00 20.00    +0.028 H 
ATOM    108 H108 LIG A   1      21.945  25.910  11.924  1.00 20.00    +0.028 H 
ATOM    109 H109 LIG A   1      19.797  25.131  11.104  1.00 20.00    +0.043 H 
ATOM    110 H110 LIG A   1      20.839  24.909   9.683  1.00 20.00    +0.043 H 
ATOM    111 H111 LIG A   1      21.256  22.709  10.322  1.00 20.00    +0.123 HD
ENDROOT
TORSDOF 0
                                                                                                                  
ENDMDL
MODEL 3
REMARK VINA RESULT:   -11.418      3.376      9.343
REMARK INTER + INTRA:         -11.418
REMARK INTER:                 -11.418
REMARK INTRA:                   0.000
REMARK UNBOUND:                 0.000
ROOT
ATOM      1 C1   LIG A   1      21.105  23.570   6.637  1.00 20.00    -0.060 C 
ATOM      2 C2   LIG A   1      21.097  22.098   7.098  1.00 20.00    -0.016 C 
ATOM      3 C3   LIG A   1      22.504  21.477   6.798  1.00 20.00    -0.023 C 
ATOM      4 C4   LIG A   1      23.350  21.211   8.017  1.00 20.00    -0.044 A 
ATOM      5 C5   LIG A   1      23.903  22.258   8.754  1.00 20.00    -0.058 A 
ATOM      6 C6   LIG A   1      24.308  22.035  10.070  1.00 20.00    -0.054 A 
ATOM      7 C7   LIG A   1      24.128  20.777  10.671  1.00 20.00    +0.009 A 
ATOM      8 C8   LIG A   1      23.717  19.699   9.866  1.00 20.00    +0.130 A 
ATOM      9 C9   LIG A   1      23.400  19.909   8.523  1.00 20.00    -0.016 A 
ATOM     10 O10  LIG A   1      23.517  18.476  10.472  1.00 20.00    -0.464 OA
ATOM     11 C11  LIG A   1      22.503  17.665  10.004  1.00 20.00    +0.104 C 
ATOM     12 C12  LIG A   1      21.168  17.820  10.150  1.00 20.00    +0.082 C 
ATOM     13 C13  LIG A   1      20.256  16.769   9.630  1.00 20.00    -0.010 A 
ATOM     14 C14  LIG A   1      20.469  16.199   8.368  1.00 20.00    -0.052 A 
ATOM     15 C15  LIG A   1      19.615  15.208   7.868  1.00 20.00    -0.038 A 
ATOM     16 C16  LIG A   1      18.520  14.747   8.606  1.00 20.00    +0.034 A 
ATOM     17 N17  LIG A   1      17.681  13.804   8.010  1.00 20.00    -0.385 NA
ATOM     18 C18  LIG A   1      16.574  13.214   8.754  1.00 20.00    +0.016 C 
ATOM     19 C19  LIG A   1      15.806  12.214   7.883  1.00 20.00    -0.023 C 
ATOM     20 C20  LIG A   1      15.047  12.851   6.709  1.00 20.00    -0.003 C 
ATOM     21 N21  LIG A   1      15.882  13.516   5.703  1.00 20.00    -0.317 NA
ATOM     22 C22  LIG A   1      16.662  12.605   4.865  1.00 20.00    -0.005 C 
ATOM     23 C23  LIG A   1      15.854  11.892   3.775  1.00 20.00    -0.039 C 
ATOM     24 C24  LIG A   1      15.481  12.759   2.567  1.00 20.00    -0.040 C 
ATOM     25 C25  LIG A   1      14.546  13.925   2.884  1.00 20.00    -0.008 C 
ATOM     26 N26  LIG A   1      14.078  14.532   1.634  1.00 20.00    -0.330 NA
ATOM     27 C27  LIG A   1      18.272  15.358   9.836  1.00 20.00    -0.038 A 
ATOM     28 C28  LIG A   1      19.134  16.339  10.351  1.00 20.00    -0.052 A 
ATOM     29 C29  LIG A   1      20.638  18.983  10.950  1.00 20.00    +0.264 C 
ATOM     30 O30  LIG A   1      20.064  18.781  12.020  1.00 20.00    -0.268 OA
ATOM     31 N31  LIG A   1      20.865  20.258  10.441  1.00 20.00    -0.277 NA
ATOM     32 C32  LIG A   1      21.047  21.341  11.419  1.00 20.00    +0.029 C 
ATOM     33 C33  LIG A   1      21.710  21.049  12.785  1.00 20.00    -0.034 C 
ATOM     34 C34  LIG A   1      22.979  20.179  12.892  1.00 20.00    -0.034 C 
ATOM     35 C35  LIG A   1      24.269  20.666  12.181  1.00 20.00    +0.085 C 
ATOM     36 C36  LIG A   1      25.476  19.816  12.573  1.00 20.00    +0.311 C 
ATOM     37 O37  LIG A   1      26.315  19.320  11.838  1.00 20.00    -0.252 OA
ATOM     38 O38  LIG A   1      25.623  19.699  13.911  1.00 20.00    -0.481 OA
ATOM     39 C39  LIG A   1      20.511  20.521   9.105  1.00 20.00    +0.246 C 
ATOM     40 O40  LIG A   1      20.105  19.646   8.332  1.00 20.00    -0.273 OA
ATOM     41 C41  LIG A   1      20.572  21.988   8.572  1.00 20.00    +0.088 C 
ATOM     42 N42  LIG A   1      19.194  22.538   8.658  1.00 20.00    -0.320 NA
ATOM     43 N43  LIG A   1      17.643  17.259   6.249  1.00 20.00    -0.287 NA
ATOM     44 C44  LIG A   1      18.129  16.078   6.461  1.00 20.00    +0.110 C 
ATOM     45 N45  LIG A   1      17.273  15.084   6.832  1.00 20.00    -0.386 NA
ATOM     46 C46  LIG A   1      19.629  15.798   6.347  1.00 20.00    +0.075 C 
ATOM     47 N47  LIG A   1      20.273  16.402   7.491  1.00 20.00    -0.348 NA
ATOM     48 C48  LIG A   1      20.598  17.747   7.498  1.00 20.00    +0.237 C 
ATOM     49 O49  LIG A   1      20.515  18.460   6.504  1.00 20.00    -0.273 OA
ATOM     50 C50  LIG A   1      21.079  18.226   8.877  1.00 20.00    +0.087 C 
ATOM     51 C51  LIG A   1      21.065  19.741   9.061  1.00 20.00    -0.027 C 
ATOM     52 C52  LIG A   1      20.362  19.971  10.393  1.00 20.00    -0.039 C 
ATOM     53 C53  LIG A   1      20.366  18.613  11.062  1.00 20.00    -0.004 C 
ATOM     54 N54  LIG A   1      20.187  17.679   9.943  1.00 20.00    -0.306 NA
ATOM     55 H55  LIG A   1      20.103  24.011   6.677  1.00 20.00    +0.023 H 
ATOM     56 H56  LIG A   1      21.768  24.177   7.261  1.00 20.00    +0.023 H 
ATOM     57 H57  LIG A   1      21.445  23.651   5.599  1.00 20.00    +0.023 H 
ATOM     58 H58  LIG A   1      20.387  21.578   6.439  1.00 20.00    +0.032 H 
ATOM     59 H59  LIG A   1      22.347  20.534   6.257  1.00 20.00    +0.032 H 
ATOM     60 H60  LIG A   1      23.079  22.103   6.103  1.00 20.00    +0.032 H 
ATOM     61 H61  LIG A   1      23.928  23.267   8.348  1.00 20.00    +0.063 H 
ATOM     62 H62  LIG A   1      24.669  22.881  10.652  1.00 20.00    +0.063 H 
ATOM     63 H63  LIG A   1      23.026  19.086   7.917  1.00 20.00    +0.067 H 
ATOM     64 H64  LIG A   1      22.956  16.799   9.535  1.00 20.00    +0.105 H 
ATOM     65 H65  LIG A   1      21.286  16.541   7.736  1.00 20.00    +0.063 H 
ATOM     66 H66  LIG A   1      19.809  14.807   6.875  1.00 20.00    +0.064 H 
ATOM     67 H67  LIG A   1      18.220  13.119   7.482  1.00 20.00    +0.160 HD
ATOM     68 H68  LIG A   1      16.961  12.685   9.632  1.00 20.00    +0.049 H 
ATOM     69 H69  LIG A   1      15.883  13.992   9.098  1.00 20.00    +0.049 H 
ATOM     70 H70  LIG A   1      15.068  11.712   8.522  1.00 20.00    +0.030 H 
ATOM     71 H71  LIG A   1      16.482  11.430   7.526  1.00 20.00    +0.030 H 
ATOM     72 H72  LIG A   1      14.364  13.607   7.114  1.00 20.00    +0.043 H 
ATOM     73 H73  LIG A   1      14.404  12.100   6.239  1.00 20.00    +0.043 H 
ATOM     74 H74  LIG A   1      16.536  14.125   6.215  1.00 20.00    +0.122 HD
ATOM     75 H75  LIG A   1      17.454  13.189   4.379  1.00 20.00    +0.043 H 
ATOM     76 H76  LIG A   1      17.182  11.863   5.478  1.00 20.00    +0.043 H 
ATOM     77 H77  LIG A   1      14.951  11.432   4.191  1.00 20.00    +0.028 H 
ATOM     78 H78  LIG A   1      16.466  11.060   3.404  1.00 20.00    +0.028 H 
ATOM     79 H79  LIG A   1      15.008  12.102   1.827  1.00 20.00    +0.028 H 
ATOM     80 H80  LIG A   1      16.397  13.139   2.098  1.00 20.00    +0.028 H 
ATOM     81 H81  LIG A   1      13.682  13.581   3.461  1.00 20.00    +0.043 H 
ATOM     82 H82  LIG A   1      15.066  14.696   3.459  1.00 20.00    +0.043 H 
ATOM     83 H83  LIG A   1      13.424  15.284   1.853  1.00 20.00    +0.118 HD
ATOM     84 H84  LIG A   1      13.550  13.838   1.106  1.00 20.00    +0.118 HD
ATOM     85 H85  LIG A   1      17.410  15.083  10.436  1.00 20.00    +0.064 H 
ATOM     86 H86  LIG A   1      18.904  16.758  11.328  1.00 20.00    +0.063 H 
ATOM     87 H87  LIG A   1      21.640  22.135  10.967  1.00 20.00    +0.050 H 
ATOM     88 H88  LIG A   1      20.055  21.774  11.600  1.00 20.00    +0.050 H 
ATOM     89 H89  LIG A   1      20.952  20.596  13.438  1.00 20.00    +0.029 H 
ATOM     90 H90  LIG A   1      21.929  22.018  13.252  1.00 20.00    +0.029 H 
ATOM     91 H91  LIG A   1      23.198  20.128  13.967  1.00 20.00    +0.028 H 
ATOM     92 H92  LIG A   1      22.748  19.145  12.630  1.00 20.00    +0.028 H 
ATOM     93 H93  LIG A   1      24.494  21.667  12.570  1.00 20.00    +0.047 H 
ATOM     94 H94  LIG A   1      26.436  19.160  14.010  1.00 20.00    +0.296 HD
ATOM     95 H95  LIG A   1      21.202  22.626   9.187  1.00 20.00    +0.057 H 
ATOM     96 H96  LIG A   1      18.602  21.995   8.024  1.00 20.00    +0.119 HD
ATOM     97 H97  LIG A   1      18.805  22.364   9.587  1.00 20.00    +0.119 HD
ATOM     98 H98  LIG A   1      18.419  17.907   6.022  1.00 20.00    +0.189 HD
ATOM     99 H99  LIG A   1      16.305  15.351   6.671  1.00 20.00    +0.157 HD
ATOM    100 H100 LIG A   1      17.485  14.156   6.483  1.00 20.00    +0.157 HD
ATOM    101 H101 LIG A   1      19.817  14.723   6.379  1.00 20.00    +0.058 H 
ATOM    102 H102 LIG A   1      20.018  16.218   5.418  1.00 20.00    +0.058 H 
ATOM    103 H103 LIG A   1      20.102  16.006   8.413  1.00 20.00    +0.163 HD
ATOM    104 H104 LIG A   1      22.095  17.839   9.024  1.00 20.00    +0.057 H 
ATOM    105 H105 LIG A   1      22.090  20.123   9.109  1.00 20.00    +0.029 H 
ATOM    106 H106 LIG A   1      20.546  20.282   8.263  1.00 20.00    +0.029 H 
ATOM    107 H107 LIG A   1      19.332  20.303  10.213  1.00 20.00    +0.028 H 
ATOM    108 H108 LIG A   1      20.862  20.734  10.998  1.00 20.00    +0.028 H 
ATOM    109 H109 LIG A   1      21.323  18.419  11.562  1.00 20.00    +0.043 H 
ATOM    110 H110 LIG A   1      19.565  18.516  11.800  1.00 20.00    +0.043 H 
ATOM    111 H111 LIG A   1      19.221  17.788   9.615  1.00 20.00    +0.123 HD
ENDROOT
TORSDOF 0
                                                                                                                  
ENDMDL
MODEL 4
REMARK VINA RESULT:   -11.343      4.073      9.807
REMARK INTER + INTRA:         -11.343
REMARK INTER:                 -11.343
REMARK INTRA:                   0.000
REMARK UNBOUND:                 0.000
ROOT
ATOM      1 C1   LIG A   1      20.700  22.099   7.026  1.00 20.00    -0.060 C 
ATOM      2 C2   LIG A   1      20.557  20.575   7.214  1.00 20.00    -0.016 C 
ATOM      3 C3   LIG A   1      21.861  19.885   6.686  1.00 20.00    -0.023 C 
ATOM      4 C4   LIG A   1      22.751  19.313   7.759  1.00 20.00    -0.044 A 
ATOM      5 C5   LIG A   1      23.468  20.142   8.622  1.00 20.00    -0.058 A 
ATOM      6 C6   LIG A   1      23.933  19.638   9.836  1.00 20.00    -0.054 A 
ATOM      7 C7   LIG A   1      23.652  18.313  10.215  1.00 20.00    +0.009 A 
ATOM      8 C8   LIG A   1      23.068  17.451   9.269  1.00 20.00    +0.130 A 
ATOM      9 C9   LIG A   1      22.688  17.940   8.018  1.00 20.00    -0.016 A 
ATOM     10 O10  LIG A   1      22.773  16.162   9.660  1.00 20.00    -0.464 OA
ATOM     11 C11  LIG A   1      21.645  15.558   9.144  1.00 20.00    +0.104 C 
ATOM     12 C12  LIG A   1      20.348  15.814   9.431  1.00 20.00    +0.082 C 
ATOM     13 C13  LIG A   1      19.290  14.974   8.812  1.00 20.00    -0.010 A 
ATOM     14 C14  LIG A   1      19.352  14.634   7.454  1.00 20.00    -0.052 A 
ATOM     15 C15  LIG A   1      18.360  13.843   6.861  1.00 20.00    -0.038 A 
ATOM     16 C16  LIG A   1      17.272  13.362   7.596  1.00 20.00    +0.034 A 
ATOM     17 N17  LIG A   1      16.293  12.636   6.916  1.00 20.00    -0.385 NA
ATOM     18 C18  LIG A   1      15.180  12.028   7.636  1.00 20.00    +0.016 C 
ATOM     19 C19  LIG A   1      14.246  11.291   6.669  1.00 20.00    -0.023 C 
ATOM     20 C20  LIG A   1      13.487  12.209   5.699  1.00 20.00    -0.003 C 
ATOM     21 N21  LIG A   1      14.322  12.965   4.760  1.00 20.00    -0.317 NA
ATOM     22 C22  LIG A   1      14.936  12.155   3.708  1.00 20.00    -0.005 C 
ATOM     23 C23  LIG A   1      13.981  11.743   2.582  1.00 20.00    -0.039 C 
ATOM     24 C24  LIG A   1      13.629  12.853   1.586  1.00 20.00    -0.040 C 
ATOM     25 C25  LIG A   1      12.855  14.025   2.187  1.00 20.00    -0.008 C 
ATOM     26 N26  LIG A   1      12.376  14.900   1.113  1.00 20.00    -0.330 NA
ATOM     27 C27  LIG A   1      17.177  13.753   8.933  1.00 20.00    -0.038 A 
ATOM     28 C28  LIG A   1      18.177  14.530   9.539  1.00 20.00    -0.052 A 
ATOM     29 C29  LIG A   1      20.009  16.853  10.469  1.00 20.00    +0.264 C 
ATOM     30 O30  LIG A   1      19.488  16.511  11.532  1.00 20.00    -0.268 OA
ATOM     31 N31  LIG A   1      20.344  18.172  10.180  1.00 20.00    -0.277 NA
ATOM     32 C32  LIG A   1      20.712  19.028  11.317  1.00 20.00    +0.029 C 
ATOM     33 C33  LIG A   1      21.428  18.421  12.545  1.00 20.00    -0.034 C 
ATOM     34 C34  LIG A   1      22.594  17.426  12.384  1.00 20.00    -0.034 C 
ATOM     35 C35  LIG A   1      23.880  17.907  11.662  1.00 20.00    +0.085 C 
ATOM     36 C36  LIG A   1      25.007  16.884  11.789  1.00 20.00    +0.311 C 
ATOM     37 O37  LIG A   1      25.733  16.454  10.907  1.00 20.00    -0.252 OA
ATOM     38 O38  LIG A   1      25.229  16.504  13.067  1.00 20.00    -0.481 OA
ATOM     39 C39  LIG A   1      19.932  18.714   8.948  1.00 20.00    +0.246 C 
ATOM     40 O40  LIG A   1      19.379  18.044   8.070  1.00 20.00    -0.273 OA
ATOM     41 C41  LIG A   1      20.123  20.242   8.685  1.00 20.00    +0.088 C 
ATOM     42 N42  LIG A   1      18.825  20.900   8.987  1.00 20.00    -0.320 NA
ATOM     43 N43  LIG A   1      16.528  16.346   5.814  1.00 20.00    -0.287 NA
ATOM     44 C44  LIG A   1      16.891  15.104   5.768  1.00 20.00    +0.110 C 
ATOM     45 N45  LIG A   1      15.954  14.148   6.027  1.00 20.00    -0.386 NA
ATOM     46 C46  LIG A   1      18.338  14.704   5.476  1.00 20.00    +0.075 C 
ATOM     47 N47  LIG A   1      19.122  15.016   6.649  1.00 20.00    -0.348 NA
ATOM     48 C48  LIG A   1      19.596  16.297   6.869  1.00 20.00    +0.237 C 
ATOM     49 O49  LIG A   1      19.528  17.189   6.030  1.00 20.00    -0.273 OA
ATOM     50 C50  LIG A   1      20.220  16.459   8.265  1.00 20.00    +0.087 C 
ATOM     51 C51  LIG A   1      20.390  17.906   8.717  1.00 20.00    -0.027 C 
ATOM     52 C52  LIG A   1      19.809  17.951  10.125  1.00 20.00    -0.039 C 
ATOM     53 C53  LIG A   1      19.704  16.497  10.536  1.00 20.00    -0.004 C 
ATOM     54 N54  LIG A   1      19.346  15.812   9.288  1.00 20.00    -0.306 NA
ATOM     55 H55  LIG A   1      19.760  22.621   7.231  1.00 20.00    +0.023 H 
ATOM     56 H56  LIG A   1      21.468  22.509   7.689  1.00 20.00    +0.023 H 
ATOM     57 H57  LIG A   1      20.976  22.339   5.994  1.00 20.00    +0.023 H 
ATOM     58 H58  LIG A   1      19.750  20.261   6.536  1.00 20.00    +0.032 H 
ATOM     59 H59  LIG A   1      21.562  19.080   6.001  1.00 20.00    +0.032 H 
ATOM     60 H60  LIG A   1      22.455  20.571   6.068  1.00 20.00    +0.032 H 
ATOM     61 H61  LIG A   1      23.579  21.203   8.403  1.00 20.00    +0.063 H 
ATOM     62 H62  LIG A   1      24.425  20.320  10.527  1.00 20.00    +0.063 H 
ATOM     63 H63  LIG A   1      22.183  17.287   7.308  1.00 20.00    +0.067 H 
ATOM     64 H64  LIG A   1      21.964  14.755   8.490  1.00 20.00    +0.105 H 
ATOM     65 H65  LIG A   1      20.158  15.005   6.825  1.00 20.00    +0.063 H 
ATOM     66 H66  LIG A   1      18.440  13.619   5.799  1.00 20.00    +0.064 H 
ATOM     67 H67  LIG A   1      16.715  12.012   6.229  1.00 20.00    +0.160 HD
ATOM     68 H68  LIG A   1      15.562  11.308   8.368  1.00 20.00    +0.049 H 
ATOM     69 H69  LIG A   1      14.605  12.792   8.172  1.00 20.00    +0.049 H 
ATOM     70 H70  LIG A   1      13.501  10.753   7.269  1.00 20.00    +0.030 H 
ATOM     71 H71  LIG A   1      14.804  10.525   6.120  1.00 20.00    +0.030 H 
ATOM     72 H72  LIG A   1      12.923  12.939   6.291  1.00 20.00    +0.043 H 
ATOM     73 H73  LIG A   1      12.733  11.626   5.159  1.00 20.00    +0.043 H 
ATOM     74 H74  LIG A   1      15.074  13.399   5.314  1.00 20.00    +0.122 HD
ATOM     75 H75  LIG A   1      15.755  12.739   3.267  1.00 20.00    +0.043 H 
ATOM     76 H76  LIG A   1      15.409  11.264   4.131  1.00 20.00    +0.043 H 
ATOM     77 H77  LIG A   1      13.062  11.304   2.986  1.00 20.00    +0.028 H 
ATOM     78 H78  LIG A   1      14.469  10.939   2.016  1.00 20.00    +0.028 H 
ATOM     79 H79  LIG A   1      13.035  12.397   0.784  1.00 20.00    +0.028 H 
ATOM     80 H80  LIG A   1      14.548  13.222   1.116  1.00 20.00    +0.028 H 
ATOM     81 H81  LIG A   1      11.998  13.667   2.766  1.00 20.00    +0.043 H 
ATOM     82 H82  LIG A   1      13.497  14.620   2.844  1.00 20.00    +0.043 H 
ATOM     83 H83  LIG A   1      11.827  15.658   1.519  1.00 20.00    +0.118 HD
ATOM     84 H84  LIG A   1      11.739  14.373   0.516  1.00 20.00    +0.118 HD
ATOM     85 H85  LIG A   1      16.332  13.457   9.546  1.00 20.00    +0.064 H 
ATOM     86 H86  LIG A   1      18.062  14.779  10.591  1.00 20.00    +0.063 H 
ATOM     87 H87  LIG A   1      21.359  19.831  10.965  1.00 20.00    +0.050 H 
ATOM     88 H88  LIG A   1      19.789  19.516  11.658  1.00 20.00    +0.050 H 
ATOM     89 H89  LIG A   1      20.670  17.931  13.170  1.00 20.00    +0.029 H 
ATOM     90 H90  LIG A   1      21.786  19.259  13.158  1.00 20.00    +0.029 H 
ATOM     91 H91  LIG A   1      22.878  17.152  13.409  1.00 20.00    +0.028 H 
ATOM     92 H92  LIG A   1      22.231  16.487  11.961  1.00 20.00    +0.028 H 
ATOM     93 H93  LIG A   1      24.243  18.791  12.204  1.00 20.00    +0.047 H 
ATOM     94 H94  LIG A   1      25.981  15.879  12.996  1.00 20.00    +0.296 HD
ATOM     95 H95  LIG A   1      20.861  20.688   9.347  1.00 20.00    +0.057 H 
ATOM     96 H96  LIG A   1      18.134  20.546   8.320  1.00 20.00    +0.119 HD
ATOM     97 H97  LIG A   1      18.482  20.594   9.900  1.00 20.00    +0.119 HD
ATOM     98 H98  LIG A   1      17.355  16.946   5.640  1.00 20.00    +0.189 HD
ATOM     99 H99  LIG A   1      15.014  14.535   6.001  1.00 20.00    +0.157 HD
ATOM    100 H100 LIG A   1      16.036  13.285   5.500  1.00 20.00    +0.157 HD
ATOM    101 H101 LIG A   1      18.405  13.629   5.297  1.00 20.00    +0.058 H 
ATOM    102 H102 LIG A   1      18.709  15.250   4.606  1.00 20.00    +0.058 H 
ATOM    103 H103 LIG A   1      18.969  14.473   7.496  1.00 20.00    +0.163 HD
ATOM    104 H104 LIG A   1      21.193  15.953   8.251  1.00 20.00    +0.057 H 
ATOM    105 H105 LIG A   1      21.453  18.169   8.744  1.00 20.00    +0.029 H 
ATOM    106 H106 LIG A   1      19.884  18.636   8.078  1.00 20.00    +0.029 H 
ATOM    107 H107 LIG A   1      18.813  18.411  10.098  1.00 20.00    +0.028 H 
ATOM    108 H108 LIG A   1      20.431  18.533  10.811  1.00 20.00    +0.028 H 
ATOM    109 H109 LIG A   1      20.664  16.119  10.909  1.00 20.00    +0.043 H 
ATOM    110 H110 LIG A   1      18.949  16.342  11.312  1.00 20.00    +0.043 H 
ATOM    111 H111 LIG A   1      18.379  16.075   9.070  1.00 20.00    +0.123 HD
ENDROOT
TORSDOF 0
                                                                                                                  
ENDMDL
MODEL 5
REMARK VINA RESULT:   -11.220      2.346      3.356
REMARK INTER + INTRA:         -11.220
REMARK INTER:                 -11.220
REMARK INTRA:                   0.000
REMARK UNBOUND:                 0.000
ROOT
ATOM      1 C1   LIG A   1      17.199  13.110  10.909  1.00 20.00    -0.060 C 
ATOM      2 C2   LIG A   1      18.139  14.152  10.266  1.00 20.00    -0.016 C 
ATOM      3 C3   LIG A   1      19.604  13.600  10.324  1.00 20.00    -0.023 C 
ATOM      4 C4   LIG A   1      20.172  13.177   8.994  1.00 20.00    -0.044 A 
ATOM      5 C5   LIG A   1      19.706  12.036   8.340  1.00 20.00    -0.058 A 
ATOM      6 C6   LIG A   1      19.919  11.892   6.969  1.00 20.00    -0.054 A 
ATOM      7 C7   LIG A   1      20.565  12.903   6.235  1.00 20.00    +0.009 A 
ATOM      8 C8   LIG A   1      21.165  13.966   6.936  1.00 20.00    +0.130 A 
ATOM      9 C9   LIG A   1      21.026  14.057   8.322  1.00 20.00    -0.016 A 
ATOM     10 O10  LIG A   1      21.772  14.965   6.204  1.00 20.00    -0.464 OA
ATOM     11 C11  LIG A   1      21.707  16.260   6.675  1.00 20.00    +0.104 C 
ATOM     12 C12  LIG A   1      20.641  17.092   6.701  1.00 20.00    +0.082 C 
ATOM     13 C13  LIG A   1      20.823  18.487   7.181  1.00 20.00    -0.010 A 
ATOM     14 C14  LIG A   1      21.583  18.754   8.328  1.00 20.00    -0.052 A 
ATOM     15 C15  LIG A   1      21.761  20.065   8.788  1.00 20.00    -0.038 A 
ATOM     16 C16  LIG A   1      21.190  21.156   8.125  1.00 20.00    +0.034 A 
ATOM     17 N17  LIG A   1      21.361  22.423   8.685  1.00 20.00    -0.385 NA
ATOM     18 C18  LIG A   1      20.871  23.614   8.000  1.00 20.00    +0.016 C 
ATOM     19 C19  LIG A   1      21.178  24.874   8.816  1.00 20.00    -0.023 C 
ATOM     20 C20  LIG A   1      20.405  24.974  10.141  1.00 20.00    -0.003 C 
ATOM     21 N21  LIG A   1      20.698  23.925  11.123  1.00 20.00    -0.317 NA
ATOM     22 C22  LIG A   1      22.018  24.028  11.745  1.00 20.00    -0.005 C 
ATOM     23 C23  LIG A   1      22.134  25.116  12.817  1.00 20.00    -0.039 C 
ATOM     24 C24  LIG A   1      21.478  24.781  14.161  1.00 20.00    -0.040 C 
ATOM     25 C25  LIG A   1      19.960  24.613  14.104  1.00 20.00    -0.008 C 
ATOM     26 N26  LIG A   1      19.424  24.529  15.465  1.00 20.00    -0.330 NA
ATOM     27 C27  LIG A   1      20.383  20.885   7.020  1.00 20.00    -0.038 A 
ATOM     28 C28  LIG A   1      20.215  19.575   6.542  1.00 20.00    -0.052 A 
ATOM     29 C29  LIG A   1      19.327  16.634   6.122  1.00 20.00    +0.264 C 
ATOM     30 O30  LIG A   1      18.884  17.171   5.106  1.00 20.00    -0.268 OA
ATOM     31 N31  LIG A   1      18.686  15.578   6.762  1.00 20.00    -0.277 NA
ATOM     32 C32  LIG A   1      17.894  14.672   5.917  1.00 20.00    +0.029 C 
ATOM     33 C33  LIG A   1      18.327  14.394   4.459  1.00 20.00    -0.034 C 
ATOM     34 C34  LIG A   1      19.799  14.112   4.099  1.00 20.00    -0.034 C 
ATOM     35 C35  LIG A   1      20.484  12.864   4.718  1.00 20.00    +0.085 C 
ATOM     36 C36  LIG A   1      21.851  12.608   4.087  1.00 20.00    +0.311 C 
ATOM     37 O37  LIG A   1      22.907  12.375   4.652  1.00 20.00    -0.252 OA
ATOM     38 O38  LIG A   1      21.807  12.571   2.736  1.00 20.00    -0.481 OA
ATOM     39 C39  LIG A   1      18.484  15.659   8.152  1.00 20.00    +0.246 C 
ATOM     40 O40  LIG A   1      18.940  16.573   8.846  1.00 20.00    -0.273 OA
ATOM     41 C41  LIG A   1      17.597  14.584   8.859  1.00 20.00    +0.088 C 
ATOM     42 N42  LIG A   1      16.237  15.167   8.999  1.00 20.00    -0.320 NA
ATOM     43 N43  LIG A   1      19.233  20.026  10.869  1.00 20.00    -0.287 NA
ATOM     44 C44  LIG A   1      20.358  20.516  10.453  1.00 20.00    +0.110 C 
ATOM     45 N45  LIG A   1      20.387  21.820  10.057  1.00 20.00    -0.386 NA
ATOM     46 C46  LIG A   1      21.619  19.655  10.361  1.00 20.00    +0.075 C 
ATOM     47 N47  LIG A   1      21.454  18.759   9.239  1.00 20.00    -0.348 NA
ATOM     48 C48  LIG A   1      20.745  17.578   9.369  1.00 20.00    +0.237 C 
ATOM     49 O49  LIG A   1      20.361  17.144  10.449  1.00 20.00    -0.273 OA
ATOM     50 C50  LIG A   1      20.513  16.883   8.017  1.00 20.00    +0.087 C 
ATOM     51 C51  LIG A   1      19.420  15.819   8.033  1.00 20.00    -0.027 C 
ATOM     52 C52  LIG A   1      18.542  16.137   6.829  1.00 20.00    -0.039 C 
ATOM     53 C53  LIG A   1      19.375  17.088   5.995  1.00 20.00    -0.004 C 
ATOM     54 N54  LIG A   1      20.089  17.888   6.997  1.00 20.00    -0.306 NA
ATOM     55 H55  LIG A   1      16.187  13.506  11.039  1.00 20.00    +0.023 H 
ATOM     56 H56  LIG A   1      17.135  12.205  10.297  1.00 20.00    +0.023 H 
ATOM     57 H57  LIG A   1      17.557  12.825  11.904  1.00 20.00    +0.023 H 
ATOM     58 H58  LIG A   1      18.116  15.029  10.929  1.00 20.00    +0.032 H 
ATOM     59 H59  LIG A   1      20.242  14.385  10.753  1.00 20.00    +0.032 H 
ATOM     60 H60  LIG A   1      19.689  12.759  11.025  1.00 20.00    +0.032 H 
ATOM     61 H61  LIG A   1      19.090  11.310   8.867  1.00 20.00    +0.063 H 
ATOM     62 H62  LIG A   1      19.484  11.032   6.464  1.00 20.00    +0.063 H 
ATOM     63 H63  LIG A   1      21.440  14.910   8.856  1.00 20.00    +0.067 H 
ATOM     64 H64  LIG A   1      22.705  16.559   6.975  1.00 20.00    +0.105 H 
ATOM     65 H65  LIG A   1      22.024  17.943   8.903  1.00 20.00    +0.063 H 
ATOM     66 H66  LIG A   1      22.343  20.223   9.694  1.00 20.00    +0.064 H 
ATOM     67 H67  LIG A   1      22.304  22.533   9.057  1.00 20.00    +0.160 HD
ATOM     68 H68  LIG A   1      21.359  23.705   7.024  1.00 20.00    +0.049 H 
ATOM     69 H69  LIG A   1      19.789  23.548   7.840  1.00 20.00    +0.049 H 
ATOM     70 H70  LIG A   1      20.902  25.743   8.206  1.00 20.00    +0.030 H 
ATOM     71 H71  LIG A   1      22.256  24.955   8.992  1.00 20.00    +0.030 H 
ATOM     72 H72  LIG A   1      19.334  24.917   9.916  1.00 20.00    +0.043 H 
ATOM     73 H73  LIG A   1      20.558  25.966  10.580  1.00 20.00    +0.043 H 
ATOM     74 H74  LIG A   1      20.644  23.026  10.624  1.00 20.00    +0.122 HD
ATOM     75 H75  LIG A   1      22.248  23.061  12.210  1.00 20.00    +0.043 H 
ATOM     76 H76  LIG A   1      22.793  24.178  10.986  1.00 20.00    +0.043 H 
ATOM     77 H77  LIG A   1      21.753  26.075  12.449  1.00 20.00    +0.028 H 
ATOM     78 H78  LIG A   1      23.204  25.277  13.007  1.00 20.00    +0.028 H 
ATOM     79 H79  LIG A   1      21.729  25.589  14.859  1.00 20.00    +0.028 H 
ATOM     80 H80  LIG A   1      21.934  23.870  14.569  1.00 20.00    +0.028 H 
ATOM     81 H81  LIG A   1      19.497  25.460  13.588  1.00 20.00    +0.043 H 
ATOM     82 H82  LIG A   1      19.689  23.693  13.578  1.00 20.00    +0.043 H 
ATOM     83 H83  LIG A   1      18.407  24.457  15.420  1.00 20.00    +0.118 HD
ATOM     84 H84  LIG A   1      19.628  25.399  15.956  1.00 20.00    +0.118 HD
ATOM     85 H85  LIG A   1      19.869  21.681   6.490  1.00 20.00    +0.064 H 
ATOM     86 H86  LIG A   1      19.597  19.430   5.659  1.00 20.00    +0.063 H 
ATOM     87 H87  LIG A   1      17.833  13.697   6.398  1.00 20.00    +0.050 H 
ATOM     88 H88  LIG A   1      16.869  15.065   5.906  1.00 20.00    +0.050 H 
ATOM     89 H89  LIG A   1      18.001  15.242   3.842  1.00 20.00    +0.029 H 
ATOM     90 H90  LIG A   1      17.727  13.548   4.099  1.00 20.00    +0.029 H 
ATOM     91 H91  LIG A   1      19.805  13.980   3.009  1.00 20.00    +0.028 H 
ATOM     92 H92  LIG A   1      20.402  15.010   4.251  1.00 20.00    +0.028 H 
ATOM     93 H93  LIG A   1      19.879  11.992   4.438  1.00 20.00    +0.047 H 
ATOM     94 H94  LIG A   1      22.732  12.376   2.478  1.00 20.00    +0.296 HD
ATOM     95 H95  LIG A   1      17.489  13.680   8.264  1.00 20.00    +0.057 H 
ATOM     96 H96  LIG A   1      16.310  15.978   9.621  1.00 20.00    +0.119 HD
ATOM     97 H97  LIG A   1      15.929  15.554   8.106  1.00 20.00    +0.119 HD
ATOM     98 H98  LIG A   1      19.363  19.022  11.089  1.00 20.00    +0.189 HD
ATOM     99 H99  LIG A   1      19.552  22.316  10.358  1.00 20.00    +0.157 HD
ATOM    100 H100 LIG A   1      21.240  22.331  10.257  1.00 20.00    +0.157 HD
ATOM    101 H101 LIG A   1      22.492  20.283  10.170  1.00 20.00    +0.058 H 
ATOM    102 H102 LIG A   1      21.758  19.094  11.287  1.00 20.00    +0.058 H 
ATOM    103 H103 LIG A   1      21.453  19.150   8.299  1.00 20.00    +0.163 HD
ATOM    104 H104 LIG A   1      21.467  16.437   7.709  1.00 20.00    +0.057 H 
ATOM    105 H105 LIG A   1      19.862  14.824   7.920  1.00 20.00    +0.029 H 
ATOM    106 H106 LIG A   1      18.817  15.812   8.947  1.00 20.00    +0.029 H 
ATOM    107 H107 LIG A   1      17.622  16.632   7.165  1.00 20.00    +0.028 H 
ATOM    108 H108 LIG A   1      18.258  15.237   6.275  1.00 20.00    +0.028 H 
ATOM    109 H109 LIG A   1      20.093  16.543   5.369  1.00 20.00    +0.043 H 
ATOM    110 H110 LIG A   1      18.757  17.714   5.345  1.00 20.00    +0.043 H 
ATOM    111 H111 LIG A   1      19.395  18.498   7.443  1.00 20.00    +0.123 HD
ENDROOT
TORSDOF 0
                                                                                                                  
ENDMDL
MODEL 6
REMARK VINA RESULT:   -11.090      3.106      4.693
REMARK INTER + INTRA:         -11.090
REMARK INTER:                 -11.090
REMARK INTRA:                   0.000
REMARK UNBOUND:                 0.000
ROOT
ATOM      1 C1   LIG A   1      19.995  18.551  10.603  1.00 20.00    -0.060 C 
ATOM      2 C2   LIG A   1      20.383  20.044  10.596  1.00 20.00    -0.016 C 
ATOM      3 C3   LIG A   1      21.852  20.177  11.124  1.00 20.00    -0.023 C 
ATOM      4 C4   LIG A   1      22.870  20.542  10.074  1.00 20.00    -0.044 A 
ATOM      5 C5   LIG A   1      23.245  19.633   9.084  1.00 20.00    -0.058 A 
ATOM      6 C6   LIG A   1      23.837  20.097   7.910  1.00 20.00    -0.054 A 
ATOM      7 C7   LIG A   1      24.025  21.474   7.700  1.00 20.00    +0.009 A 
ATOM      8 C8   LIG A   1      23.788  22.358   8.769  1.00 20.00    +0.130 A 
ATOM      9 C9   LIG A   1      23.280  21.875   9.976  1.00 20.00    -0.016 A 
ATOM     10 O10  LIG A   1      23.949  23.709   8.542  1.00 20.00    -0.464 OA
ATOM     11 C11  LIG A   1      23.106  24.591   9.186  1.00 20.00    +0.104 C 
ATOM     12 C12  LIG A   1      21.797  24.829   8.945  1.00 20.00    +0.082 C 
ATOM     13 C13  LIG A   1      21.102  25.895   9.714  1.00 20.00    -0.010 A 
ATOM     14 C14  LIG A   1      21.297  26.021  11.096  1.00 20.00    -0.052 A 
ATOM     15 C15  LIG A   1      20.647  27.021  11.829  1.00 20.00    -0.038 A 
ATOM     16 C16  LIG A   1      19.780  27.932  11.216  1.00 20.00    +0.034 A 
ATOM     17 N17  LIG A   1      19.122  28.857  12.028  1.00 20.00    -0.385 NA
ATOM     18 C18  LIG A   1      18.276  29.892  11.445  1.00 20.00    +0.016 C 
ATOM     19 C19  LIG A   1      17.668  30.775  12.540  1.00 20.00    -0.023 C 
ATOM     20 C20  LIG A   1      16.653  30.057  13.442  1.00 20.00    -0.003 C 
ATOM     21 N21  LIG A   1      17.190  28.951  14.241  1.00 20.00    -0.317 NA
ATOM     22 C22  LIG A   1      18.059  29.364  15.341  1.00 20.00    -0.005 C 
ATOM     23 C23  LIG A   1      17.322  29.932  16.558  1.00 20.00    -0.039 C 
ATOM     24 C24  LIG A   1      16.622  28.893  17.441  1.00 20.00    -0.040 C 
ATOM     25 C25  LIG A   1      15.483  28.139  16.756  1.00 20.00    -0.008 C 
ATOM     26 N26  LIG A   1      14.747  27.353  17.751  1.00 20.00    -0.330 NA
ATOM     27 C27  LIG A   1      19.538  27.767   9.851  1.00 20.00    -0.038 A 
ATOM     28 C28  LIG A   1      20.200  26.778   9.106  1.00 20.00    -0.052 A 
ATOM     29 C29  LIG A   1      21.105  24.107   7.818  1.00 20.00    +0.264 C 
ATOM     30 O30  LIG A   1      20.719  24.736   6.832  1.00 20.00    -0.268 OA
ATOM     31 N31  LIG A   1      20.969  22.728   7.937  1.00 20.00    -0.277 NA
ATOM     32 C32  LIG A   1      21.004  21.946   6.692  1.00 20.00    +0.029 C 
ATOM     33 C33  LIG A   1      21.867  22.422   5.501  1.00 20.00    -0.034 C 
ATOM     34 C34  LIG A   1      23.307  22.933   5.707  1.00 20.00    -0.034 C 
ATOM     35 C35  LIG A   1      24.358  21.956   6.297  1.00 20.00    +0.085 C 
ATOM     36 C36  LIG A   1      25.767  22.542   6.223  1.00 20.00    +0.311 C 
ATOM     37 O37  LIG A   1      26.609  22.585   7.105  1.00 20.00    -0.252 OA
ATOM     38 O38  LIG A   1      26.088  22.981   4.985  1.00 20.00    -0.481 OA
ATOM     39 C39  LIG A   1      20.413  22.208   9.121  1.00 20.00    +0.246 C 
ATOM     40 O40  LIG A   1      20.138  22.910  10.099  1.00 20.00    -0.273 OA
ATOM     41 C41  LIG A   1      20.069  20.686   9.199  1.00 20.00    +0.088 C 
ATOM     42 N42  LIG A   1      18.620  20.553   8.898  1.00 20.00    -0.320 NA
ATOM     43 N43  LIG A   1      18.079  25.181  12.690  1.00 20.00    -0.287 NA
ATOM     44 C44  LIG A   1      18.849  26.209  12.855  1.00 20.00    +0.110 C 
ATOM     45 N45  LIG A   1      18.295  27.451  12.759  1.00 20.00    -0.386 NA
ATOM     46 C46  LIG A   1      20.349  26.053  13.108  1.00 20.00    +0.075 C 
ATOM     47 N47  LIG A   1      20.960  25.642  11.865  1.00 20.00    -0.348 NA
ATOM     48 C48  LIG A   1      20.961  24.314  11.475  1.00 20.00    +0.237 C 
ATOM     49 O49  LIG A   1      20.602  23.401  12.211  1.00 20.00    -0.273 OA
ATOM     50 C50  LIG A   1      21.471  24.126  10.037  1.00 20.00    +0.087 C 
ATOM     51 C51  LIG A   1      21.125  22.776   9.415  1.00 20.00    -0.027 C 
ATOM     52 C52  LIG A   1      20.544  23.109   8.047  1.00 20.00    -0.039 C 
ATOM     53 C53  LIG A   1      20.941  24.551   7.809  1.00 20.00    -0.004 C 
ATOM     54 N54  LIG A   1      20.859  25.155   9.144  1.00 20.00    -0.306 NA
ATOM     55 H55  LIG A   1      18.929  18.410  10.394  1.00 20.00    +0.023 H 
ATOM     56 H56  LIG A   1      20.565  17.991   9.856  1.00 20.00    +0.023 H 
ATOM     57 H57  LIG A   1      20.186  18.104  11.584  1.00 20.00    +0.023 H 
ATOM     58 H58  LIG A   1      19.744  20.527  11.350  1.00 20.00    +0.032 H 
ATOM     59 H59  LIG A   1      21.859  20.943  11.911  1.00 20.00    +0.032 H 
ATOM     60 H60  LIG A   1      22.183  19.258  11.627  1.00 20.00    +0.032 H 
ATOM     61 H61  LIG A   1      22.986  18.579   9.175  1.00 20.00    +0.063 H 
ATOM     62 H62  LIG A   1      24.054  19.381   7.120  1.00 20.00    +0.063 H 
ATOM     63 H63  LIG A   1      23.041  22.566  10.782  1.00 20.00    +0.067 H 
ATOM     64 H64  LIG A   1      23.692  25.149   9.907  1.00 20.00    +0.105 H 
ATOM     65 H65  LIG A   1      21.934  25.322  11.633  1.00 20.00    +0.063 H 
ATOM     66 H66  LIG A   1      20.814  27.069  12.904  1.00 20.00    +0.064 H 
ATOM     67 H67  LIG A   1      19.743  29.208  12.756  1.00 20.00    +0.160 HD
ATOM     68 H68  LIG A   1      18.872  30.524  10.778  1.00 20.00    +0.049 H 
ATOM     69 H69  LIG A   1      17.465  29.442  10.859  1.00 20.00    +0.049 H 
ATOM     70 H70  LIG A   1      17.145  31.605  12.047  1.00 20.00    +0.030 H 
ATOM     71 H71  LIG A   1      18.463  31.231  13.140  1.00 20.00    +0.030 H 
ATOM     72 H72  LIG A   1      15.863  29.643  12.804  1.00 20.00    +0.043 H 
ATOM     73 H73  LIG A   1      16.153  30.789  14.085  1.00 20.00    +0.043 H 
ATOM     74 H74  LIG A   1      17.737  28.359  13.599  1.00 20.00    +0.122 HD
ATOM     75 H75  LIG A   1      18.633  28.486  15.666  1.00 20.00    +0.043 H 
ATOM     76 H76  LIG A   1      18.805  30.087  14.996  1.00 20.00    +0.043 H 
ATOM     77 H77  LIG A   1      16.605  30.705  16.259  1.00 20.00    +0.028 H 
ATOM     78 H78  LIG A   1      18.065  30.445  17.183  1.00 20.00    +0.028 H 
ATOM     79 H79  LIG A   1      16.234  29.419  18.322  1.00 20.00    +0.028 H 
ATOM     80 H80  LIG A   1      17.365  28.177  17.814  1.00 20.00    +0.028 H 
ATOM     81 H81  LIG A   1      14.794  28.837  16.271  1.00 20.00    +0.043 H 
ATOM     82 H82  LIG A   1      15.871  27.449  16.001  1.00 20.00    +0.043 H 
ATOM     83 H83  LIG A   1      13.965  26.884  17.293  1.00 20.00    +0.118 HD
ATOM     84 H84  LIG A   1      14.339  27.986  18.438  1.00 20.00    +0.118 HD
ATOM     85 H85  LIG A   1      18.838  28.407   9.324  1.00 20.00    +0.064 H 
ATOM     86 H86  LIG A   1      19.991  26.717   8.040  1.00 20.00    +0.063 H 
ATOM     87 H87  LIG A   1      21.339  20.934   6.914  1.00 20.00    +0.050 H 
ATOM     88 H88  LIG A   1      19.964  21.849   6.351  1.00 20.00    +0.050 H 
ATOM     89 H89  LIG A   1      21.315  23.216   4.979  1.00 20.00    +0.029 H 
ATOM     90 H90  LIG A   1      21.906  21.597   4.779  1.00 20.00    +0.029 H 
ATOM     91 H91  LIG A   1      23.653  23.220   4.706  1.00 20.00    +0.028 H 
ATOM     92 H92  LIG A   1      23.296  23.879   6.253  1.00 20.00    +0.028 H 
ATOM     93 H93  LIG A   1      24.387  21.078   5.639  1.00 20.00    +0.047 H 
ATOM     94 H94  LIG A   1      27.011  23.299   5.083  1.00 20.00    +0.296 HD
ATOM     95 H95  LIG A   1      20.599  20.103   8.451  1.00 20.00    +0.057 H 
ATOM     96 H96  LIG A   1      18.103  21.034   9.640  1.00 20.00    +0.119 HD
ATOM     97 H97  LIG A   1      18.391  21.069   8.047  1.00 20.00    +0.119 HD
ATOM     98 H98  LIG A   1      18.652  24.318  12.748  1.00 20.00    +0.189 HD
ATOM     99 H99  LIG A   1      17.280  27.407  12.794  1.00 20.00    +0.157 HD
ATOM    100 H100 LIG A   1      18.677  28.161  13.374  1.00 20.00    +0.157 HD
ATOM    101 H101 LIG A   1      20.785  27.009  13.402  1.00 20.00    +0.058 H 
ATOM    102 H102 LIG A   1      20.522  25.308  13.888  1.00 20.00    +0.058 H 
ATOM    103 H103 LIG A   1      20.992  26.306  11.094  1.00 20.00    +0.163 HD
ATOM    104 H104 LIG A   1      22.559  24.265  10.053  1.00 20.00    +0.057 H 
ATOM    105 H105 LIG A   1      22.031  22.173   9.299  1.00 20.00    +0.029 H 
ATOM    106 H106 LIG A   1      20.407  22.188   9.996  1.00 20.00    +0.029 H 
ATOM    107 H107 LIG A   1      19.452  23.016   8.078  1.00 20.00    +0.028 H 
ATOM    108 H108 LIG A   1      20.918  22.441   7.265  1.00 20.00    +0.028 H 
ATOM    109 H109 LIG A   1      21.967  24.623   7.427  1.00 20.00    +0.043 H 
ATOM    110 H110 LIG A   1      20.274  25.049   7.099  1.00 20.00    +0.043 H 
ATOM    111 H111 LIG A   1      19.863  25.211   9.385  1.00 20.00    +0.123 HD
ENDROOT
TORSDOF 0
                                                                                                                  
ENDMDL
MODEL 7
REMARK VINA RESULT:   -11.042      2.651      5.246
REMARK INTER + INTRA:         -11.042
REMARK INTER:                 -11.042
REMARK INTRA:                   0.000
REMARK UNBOUND:                 0.000
ROOT
ATOM      1 C1   LIG A   1      20.845  17.038   4.238  1.00 20.00    -0.060 C 
ATOM      2 C2   LIG A   1      20.528  17.442   5.693  1.00 20.00    -0.016 C 
ATOM      3 C3   LIG A   1      18.971  17.499   5.863  1.00 20.00    -0.023 C 
ATOM      4 C4   LIG A   1      18.387  16.387   6.696  1.00 20.00    -0.044 A 
ATOM      5 C5   LIG A   1      18.346  15.075   6.223  1.00 20.00    -0.058 A 
ATOM      6 C6   LIG A   1      18.206  14.021   7.125  1.00 20.00    -0.054 A 
ATOM      7 C7   LIG A   1      18.144  14.267   8.508  1.00 20.00    +0.009 A 
ATOM      8 C8   LIG A   1      18.027  15.597   8.952  1.00 20.00    +0.130 A 
ATOM      9 C9   LIG A   1      18.076  16.648   8.034  1.00 20.00    -0.016 A 
ATOM     10 O10  LIG A   1      17.993  15.827  10.311  1.00 20.00    -0.464 OA
ATOM     11 C11  LIG A   1      18.591  16.971  10.801  1.00 20.00    +0.104 C 
ATOM     12 C12  LIG A   1      19.910  17.249  10.908  1.00 20.00    +0.082 C 
ATOM     13 C13  LIG A   1      20.332  18.521  11.551  1.00 20.00    -0.010 A 
ATOM     14 C14  LIG A   1      19.679  19.724  11.249  1.00 20.00    -0.052 A 
ATOM     15 C15  LIG A   1      20.068  20.928  11.849  1.00 20.00    -0.038 A 
ATOM     16 C16  LIG A   1      21.120  20.980  12.770  1.00 20.00    +0.034 A 
ATOM     17 N17  LIG A   1      21.488  22.229  13.273  1.00 20.00    -0.385 NA
ATOM     18 C18  LIG A   1      22.513  22.346  14.303  1.00 20.00    +0.016 C 
ATOM     19 C19  LIG A   1      22.735  23.813  14.684  1.00 20.00    -0.023 C 
ATOM     20 C20  LIG A   1      23.358  24.668  13.569  1.00 20.00    -0.003 C 
ATOM     21 N21  LIG A   1      22.547  24.813  12.356  1.00 20.00    -0.317 NA
ATOM     22 C22  LIG A   1      21.365  25.660  12.514  1.00 20.00    -0.005 C 
ATOM     23 C23  LIG A   1      21.658  27.164  12.541  1.00 20.00    -0.039 C 
ATOM     24 C24  LIG A   1      21.982  27.790  11.179  1.00 20.00    -0.040 C 
ATOM     25 C25  LIG A   1      23.263  27.272  10.528  1.00 20.00    -0.008 C 
ATOM     26 N26  LIG A   1      23.589  28.097   9.362  1.00 20.00    -0.330 NA
ATOM     27 C27  LIG A   1      21.810  19.793  13.023  1.00 20.00    -0.038 A 
ATOM     28 C28  LIG A   1      21.413  18.579  12.439  1.00 20.00    -0.052 A 
ATOM     29 C29  LIG A   1      20.924  16.213  10.496  1.00 20.00    +0.264 C 
ATOM     30 O30  LIG A   1      21.643  15.687  11.347  1.00 20.00    -0.268 OA
ATOM     31 N31  LIG A   1      20.970  15.870   9.149  1.00 20.00    -0.277 NA
ATOM     32 C32  LIG A   1      21.340  14.484   8.828  1.00 20.00    +0.029 C 
ATOM     33 C33  LIG A   1      20.951  13.335   9.787  1.00 20.00    -0.034 C 
ATOM     34 C34  LIG A   1      19.544  13.252  10.411  1.00 20.00    -0.034 C 
ATOM     35 C35  LIG A   1      18.325  13.098   9.463  1.00 20.00    +0.085 C 
ATOM     36 C36  LIG A   1      17.045  12.804  10.244  1.00 20.00    +0.311 C 
ATOM     37 O37  LIG A   1      15.954  13.336  10.123  1.00 20.00    -0.252 OA
ATOM     38 O38  LIG A   1      17.181  11.770  11.103  1.00 20.00    -0.481 OA
ATOM     39 C39  LIG A   1      21.070  16.902   8.197  1.00 20.00    +0.246 C 
ATOM     40 O40  LIG A   1      21.015  18.099   8.495  1.00 20.00    -0.273 OA
ATOM     41 C41  LIG A   1      21.320  16.536   6.699  1.00 20.00    +0.088 C 
ATOM     42 N42  LIG A   1      22.780  16.673   6.457  1.00 20.00    -0.320 NA
ATOM     43 N43  LIG A   1      22.129  21.829   9.469  1.00 20.00    -0.287 NA
ATOM     44 C44  LIG A   1      21.381  22.101  10.491  1.00 20.00    +0.110 C 
ATOM     45 N45  LIG A   1      21.971  22.630  11.600  1.00 20.00    -0.386 NA
ATOM     46 C46  LIG A   1      19.881  21.804  10.485  1.00 20.00    +0.075 C 
ATOM     47 N47  LIG A   1      19.720  20.372  10.595  1.00 20.00    -0.348 NA
ATOM     48 C48  LIG A   1      19.813  19.556   9.482  1.00 20.00    +0.237 C 
ATOM     49 O49  LIG A   1      19.871  19.992   8.337  1.00 20.00    -0.273 OA
ATOM     50 C50  LIG A   1      19.821  18.063   9.848  1.00 20.00    +0.087 C 
ATOM     51 C51  LIG A   1      20.318  17.142   8.738  1.00 20.00    -0.027 C 
ATOM     52 C52  LIG A   1      21.343  16.234   9.407  1.00 20.00    -0.039 C 
ATOM     53 C53  LIG A   1      21.095  16.414  10.890  1.00 20.00    -0.004 C 
ATOM     54 N54  LIG A   1      20.733  17.831  11.008  1.00 20.00    -0.306 NA
ATOM     55 H55  LIG A   1      21.913  17.134   4.016  1.00 20.00    +0.023 H 
ATOM     56 H56  LIG A   1      20.549  16.003   4.041  1.00 20.00    +0.023 H 
ATOM     57 H57  LIG A   1      20.316  17.685   3.530  1.00 20.00    +0.023 H 
ATOM     58 H58  LIG A   1      20.885  18.476   5.804  1.00 20.00    +0.032 H 
ATOM     59 H59  LIG A   1      18.718  18.463   6.324  1.00 20.00    +0.032 H 
ATOM     60 H60  LIG A   1      18.461  17.513   4.891  1.00 20.00    +0.032 H 
ATOM     61 H61  LIG A   1      18.526  14.861   5.171  1.00 20.00    +0.063 H 
ATOM     62 H62  LIG A   1      18.251  13.003   6.745  1.00 20.00    +0.063 H 
ATOM     63 H63  LIG A   1      18.044  17.678   8.383  1.00 20.00    +0.067 H 
ATOM     64 H64  LIG A   1      17.811  17.623  11.175  1.00 20.00    +0.105 H 
ATOM     65 H65  LIG A   1      18.876  19.751  10.516  1.00 20.00    +0.063 H 
ATOM     66 H66  LIG A   1      19.545  21.841  11.570  1.00 20.00    +0.064 H 
ATOM     67 H67  LIG A   1      20.666  22.803  13.457  1.00 20.00    +0.160 HD
ATOM     68 H68  LIG A   1      22.200  21.798  15.199  1.00 20.00    +0.049 H 
ATOM     69 H69  LIG A   1      23.461  21.921  13.953  1.00 20.00    +0.049 H 
ATOM     70 H70  LIG A   1      23.420  23.837  15.541  1.00 20.00    +0.030 H 
ATOM     71 H71  LIG A   1      21.797  24.258  15.032  1.00 20.00    +0.030 H 
ATOM     72 H72  LIG A   1      24.305  24.204  13.272  1.00 20.00    +0.043 H 
ATOM     73 H73  LIG A   1      23.629  25.651  13.970  1.00 20.00    +0.043 H 
ATOM     74 H74  LIG A   1      22.234  23.867  12.093  1.00 20.00    +0.122 HD
ATOM     75 H75  LIG A   1      20.689  25.457  11.674  1.00 20.00    +0.043 H 
ATOM     76 H76  LIG A   1      20.805  25.381  13.412  1.00 20.00    +0.043 H 
ATOM     77 H77  LIG A   1      22.457  27.398  13.253  1.00 20.00    +0.028 H 
ATOM     78 H78  LIG A   1      20.762  27.667  12.927  1.00 20.00    +0.028 H 
ATOM     79 H79  LIG A   1      22.061  28.874  11.327  1.00 20.00    +0.028 H 
ATOM     80 H80  LIG A   1      21.135  27.634  10.500  1.00 20.00    +0.028 H 
ATOM     81 H81  LIG A   1      24.097  27.306  11.236  1.00 20.00    +0.043 H 
ATOM     82 H82  LIG A   1      23.136  26.240  10.186  1.00 20.00    +0.043 H 
ATOM     83 H83  LIG A   1      24.467  27.770   8.956  1.00 20.00    +0.118 HD
ATOM     84 H84  LIG A   1      23.756  29.055   9.669  1.00 20.00    +0.118 HD
ATOM     85 H85  LIG A   1      22.667  19.773  13.689  1.00 20.00    +0.064 H 
ATOM     86 H86  LIG A   1      21.972  17.683  12.697  1.00 20.00    +0.063 H 
ATOM     87 H87  LIG A   1      20.918  14.216   7.860  1.00 20.00    +0.050 H 
ATOM     88 H88  LIG A   1      22.430  14.471   8.694  1.00 20.00    +0.050 H 
ATOM     89 H89  LIG A   1      21.672  13.328  10.616  1.00 20.00    +0.029 H 
ATOM     90 H90  LIG A   1      21.138  12.393   9.256  1.00 20.00    +0.029 H 
ATOM     91 H91  LIG A   1      19.571  12.363  11.055  1.00 20.00    +0.028 H 
ATOM     92 H92  LIG A   1      19.396  14.073  11.116  1.00 20.00    +0.028 H 
ATOM     93 H93  LIG A   1      18.498  12.197   8.860  1.00 20.00    +0.047 H 
ATOM     94 H94  LIG A   1      16.291  11.683  11.505  1.00 20.00    +0.296 HD
ATOM     95 H95  LIG A   1      21.062  15.504   6.475  1.00 20.00    +0.057 H 
ATOM     96 H96  LIG A   1      23.027  17.658   6.589  1.00 20.00    +0.119 HD
ATOM     97 H97  LIG A   1      23.303  16.177   7.181  1.00 20.00    +0.119 HD
ATOM     98 H98  LIG A   1      21.546  21.396   8.730  1.00 20.00    +0.189 HD
ATOM     99 H99  LIG A   1      22.911  22.960  11.397  1.00 20.00    +0.157 HD
ATOM    100 H100 LIG A   1      21.423  23.306  12.121  1.00 20.00    +0.157 HD
ATOM    101 H101 LIG A   1      19.399  22.268  11.348  1.00 20.00    +0.058 H 
ATOM    102 H102 LIG A   1      19.429  22.173   9.562  1.00 20.00    +0.058 H 
ATOM    103 H103 LIG A   1      19.974  19.918  11.471  1.00 20.00    +0.163 HD
ATOM    104 H104 LIG A   1      18.798  17.789  10.134  1.00 20.00    +0.057 H 
ATOM    105 H105 LIG A   1      19.489  16.544   8.346  1.00 20.00    +0.029 H 
ATOM    106 H106 LIG A   1      20.775  17.668   7.894  1.00 20.00    +0.029 H 
ATOM    107 H107 LIG A   1      22.355  16.567   9.147  1.00 20.00    +0.028 H 
ATOM    108 H108 LIG A   1      21.239  15.191   9.091  1.00 20.00    +0.028 H 
ATOM    109 H109 LIG A   1      20.264  15.785  11.233  1.00 20.00    +0.043 H 
ATOM    110 H110 LIG A   1      21.979  16.172  11.486  1.00 20.00    +0.043 H 
ATOM    111 H111 LIG A   1      21.587  18.373  10.835  1.00 20.00    +0.123 HD
ENDROOT
TORSDOF 0
                                                                                                                  
ENDMDL
MODEL 8
REMARK VINA RESULT:   -10.983      2.809      5.136
REMARK INTER + INTRA:         -10.983
REMARK INTER:                 -10.983
REMARK INTRA:                   0.000
REMARK UNBOUND:                 0.000
ROOT
ATOM      1 C1   LIG A   1      21.751  21.446   5.604  1.00 20.00    -0.060 C 
ATOM      2 C2   LIG A   1      21.401  21.567   7.101  1.00 20.00    -0.016 C 
ATOM      3 C3   LIG A   1      19.975  20.957   7.327  1.00 20.00    -0.023 C 
ATOM      4 C4   LIG A   1      19.961  19.641   8.062  1.00 20.00    -0.044 A 
ATOM      5 C5   LIG A   1      20.430  18.473   7.461  1.00 20.00    -0.058 A 
ATOM      6 C6   LIG A   1      20.801  17.389   8.257  1.00 20.00    -0.054 A 
ATOM      7 C7   LIG A   1      20.742  17.478   9.659  1.00 20.00    +0.009 A 
ATOM      8 C8   LIG A   1      20.120  18.599  10.238  1.00 20.00    +0.130 A 
ATOM      9 C9   LIG A   1      19.667  19.643   9.429  1.00 20.00    -0.016 A 
ATOM     10 O10  LIG A   1      20.092  18.688  11.614  1.00 20.00    -0.464 OA
ATOM     11 C11  LIG A   1      20.201  19.934  12.197  1.00 20.00    +0.104 C 
ATOM     12 C12  LIG A   1      21.292  20.727  12.288  1.00 20.00    +0.082 C 
ATOM     13 C13  LIG A   1      21.198  22.005  13.041  1.00 20.00    -0.010 A 
ATOM     14 C14  LIG A   1      20.088  22.846  12.884  1.00 20.00    -0.052 A 
ATOM     15 C15  LIG A   1      19.989  24.052  13.589  1.00 20.00    -0.038 A 
ATOM     16 C16  LIG A   1      20.989  24.464  14.476  1.00 20.00    +0.034 A 
ATOM     17 N17  LIG A   1      20.846  25.710  15.090  1.00 20.00    -0.385 NA
ATOM     18 C18  LIG A   1      21.803  26.162  16.093  1.00 20.00    +0.016 C 
ATOM     19 C19  LIG A   1      21.429  27.554  16.612  1.00 20.00    -0.023 C 
ATOM     20 C20  LIG A   1      21.563  28.675  15.570  1.00 20.00    -0.003 C 
ATOM     21 N21  LIG A   1      20.680  28.563  14.404  1.00 20.00    -0.317 NA
ATOM     22 C22  LIG A   1      19.269  28.827  14.686  1.00 20.00    -0.005 C 
ATOM     23 C23  LIG A   1      18.918  30.308  14.854  1.00 20.00    -0.039 C 
ATOM     24 C24  LIG A   1      18.857  31.116  13.553  1.00 20.00    -0.040 C 
ATOM     25 C25  LIG A   1      20.188  31.231  12.812  1.00 20.00    -0.008 C 
ATOM     26 N26  LIG A   1      20.061  32.206  11.724  1.00 20.00    -0.330 NA
ATOM     27 C27  LIG A   1      22.123  23.657  14.586  1.00 20.00    -0.038 A 
ATOM     28 C28  LIG A   1      22.220  22.438  13.896  1.00 20.00    -0.052 A 
ATOM     29 C29  LIG A   1      22.611  20.243  11.741  1.00 20.00    +0.264 C 
ATOM     30 O30  LIG A   1      23.541  19.999  12.510  1.00 20.00    -0.268 OA
ATOM     31 N31  LIG A   1      22.696  20.056  10.365  1.00 20.00    -0.277 NA
ATOM     32 C32  LIG A   1      23.580  18.980   9.894  1.00 20.00    +0.029 C 
ATOM     33 C33  LIG A   1      23.768  17.703  10.745  1.00 20.00    -0.034 C 
ATOM     34 C34  LIG A   1      22.568  16.992  11.403  1.00 20.00    -0.034 C 
ATOM     35 C35  LIG A   1      21.457  16.420  10.485  1.00 20.00    +0.085 C 
ATOM     36 C36  LIG A   1      20.470  15.560  11.273  1.00 20.00    +0.311 C 
ATOM     37 O37  LIG A   1      19.251  15.597  11.242  1.00 20.00    -0.252 OA
ATOM     38 O38  LIG A   1      21.081  14.612  12.018  1.00 20.00    -0.481 OA
ATOM     39 C39  LIG A   1      22.295  21.107   9.519  1.00 20.00    +0.246 C 
ATOM     40 O40  LIG A   1      21.773  22.146   9.938  1.00 20.00    -0.273 OA
ATOM     41 C41  LIG A   1      22.565  20.997   7.984  1.00 20.00    +0.088 C 
ATOM     42 N42  LIG A   1      23.818  21.748   7.710  1.00 20.00    -0.320 NA
ATOM     43 N43  LIG A   1      21.321  25.912  11.247  1.00 20.00    -0.287 NA
ATOM     44 C44  LIG A   1      20.602  25.767  12.314  1.00 20.00    +0.110 C 
ATOM     45 N45  LIG A   1      21.000  26.405  13.451  1.00 20.00    -0.386 NA
ATOM     46 C46  LIG A   1      19.361  24.873  12.328  1.00 20.00    +0.075 C 
ATOM     47 N47  LIG A   1      19.812  23.501  12.298  1.00 20.00    -0.348 NA
ATOM     48 C48  LIG A   1      20.153  22.888  11.106  1.00 20.00    +0.237 C 
ATOM     49 O49  LIG A   1      19.944  23.396  10.009  1.00 20.00    -0.273 OA
ATOM     50 C50  LIG A   1      20.800  21.510  11.319  1.00 20.00    +0.087 C 
ATOM     51 C51  LIG A   1      21.552  20.970  10.106  1.00 20.00    -0.027 C 
ATOM     52 C52  LIG A   1      22.904  20.521  10.646  1.00 20.00    -0.039 C 
ATOM     53 C53  LIG A   1      22.711  20.465  12.147  1.00 20.00    -0.004 C 
ATOM     54 N54  LIG A   1      21.807  21.589  12.419  1.00 20.00    -0.306 NA
ATOM     55 H55  LIG A   1      22.666  21.995   5.358  1.00 20.00    +0.023 H 
ATOM     56 H56  LIG A   1      21.893  20.401   5.314  1.00 20.00    +0.023 H 
ATOM     57 H57  LIG A   1      20.954  21.867   4.982  1.00 20.00    +0.023 H 
ATOM     58 H58  LIG A   1      21.308  22.643   7.304  1.00 20.00    +0.032 H 
ATOM     59 H59  LIG A   1      19.382  21.689   7.891  1.00 20.00    +0.032 H 
ATOM     60 H60  LIG A   1      19.436  20.833   6.378  1.00 20.00    +0.032 H 
ATOM     61 H61  LIG A   1      20.606  18.436   6.388  1.00 20.00    +0.063 H 
ATOM     62 H62  LIG A   1      21.234  16.515   7.774  1.00 20.00    +0.063 H 
ATOM     63 H63  LIG A   1      19.240  20.536   9.881  1.00 20.00    +0.067 H 
ATOM     64 H64  LIG A   1      19.250  20.171  12.660  1.00 20.00    +0.105 H 
ATOM     65 H65  LIG A   1      19.295  22.593  12.184  1.00 20.00    +0.063 H 
ATOM     66 H66  LIG A   1      19.118  24.683  13.421  1.00 20.00    +0.064 H 
ATOM     67 H67  LIG A   1      19.876  25.873  15.358  1.00 20.00    +0.160 HD
ATOM     68 H68  LIG A   1      21.808  25.465  16.939  1.00 20.00    +0.049 H 
ATOM     69 H69  LIG A   1      22.814  26.199  15.671  1.00 20.00    +0.049 H 
ATOM     70 H70  LIG A   1      22.103  27.793  17.444  1.00 20.00    +0.030 H 
ATOM     71 H71  LIG A   1      20.418  27.539  17.034  1.00 20.00    +0.030 H 
ATOM     72 H72  LIG A   1      22.593  28.672  15.196  1.00 20.00    +0.043 H 
ATOM     73 H73  LIG A   1      21.433  29.646  16.058  1.00 20.00    +0.043 H 
ATOM     74 H74  LIG A   1      20.766  27.597  14.058  1.00 20.00    +0.122 HD
ATOM     75 H75  LIG A   1      18.678  28.426  13.851  1.00 20.00    +0.043 H 
ATOM     76 H76  LIG A   1      18.939  28.270  15.569  1.00 20.00    +0.043 H 
ATOM     77 H77  LIG A   1      19.599  30.797  15.560  1.00 20.00    +0.028 H 
ATOM     78 H78  LIG A   1      17.924  30.361  15.318  1.00 20.00    +0.028 H 
ATOM     79 H79  LIG A   1      18.493  32.120  13.807  1.00 20.00    +0.028 H 
ATOM     80 H80  LIG A   1      18.103  30.676  12.889  1.00 20.00    +0.028 H 
ATOM     81 H81  LIG A   1      20.982  31.554  13.491  1.00 20.00    +0.043 H 
ATOM     82 H82  LIG A   1      20.473  30.271  12.371  1.00 20.00    +0.043 H 
ATOM     83 H83  LIG A   1      20.964  32.307  11.259  1.00 20.00    +0.118 HD
ATOM     84 H84  LIG A   1      19.841  33.119  12.121  1.00 20.00    +0.118 HD
ATOM     85 H85  LIG A   1      22.958  23.944  15.217  1.00 20.00    +0.064 H 
ATOM     86 H86  LIG A   1      23.115  21.839  14.044  1.00 20.00    +0.063 H 
ATOM     87 H87  LIG A   1      23.238  18.637   8.919  1.00 20.00    +0.050 H 
ATOM     88 H88  LIG A   1      24.566  19.433   9.724  1.00 20.00    +0.050 H 
ATOM     89 H89  LIG A   1      24.485  17.932  11.545  1.00 20.00    +0.029 H 
ATOM     90 H90  LIG A   1      24.287  16.968  10.116  1.00 20.00    +0.029 H 
ATOM     91 H91  LIG A   1      23.004  16.148  11.953  1.00 20.00    +0.028 H 
ATOM     92 H92  LIG A   1      22.146  17.620  12.191  1.00 20.00    +0.028 H 
ATOM     93 H93  LIG A   1      21.940  15.723   9.788  1.00 20.00    +0.047 H 
ATOM     94 H94  LIG A   1      20.337  14.131  12.438  1.00 20.00    +0.296 HD
ATOM     95 H95  LIG A   1      22.739  19.972   7.666  1.00 20.00    +0.057 H 
ATOM     96 H96  LIG A   1      23.646  22.733   7.933  1.00 20.00    +0.119 HD
ATOM     97 H97  LIG A   1      24.549  21.459   8.363  1.00 20.00    +0.119 HD
ATOM     98 H98  LIG A   1      20.916  25.335  10.487  1.00 20.00    +0.189 HD
ATOM     99 H99  LIG A   1      21.704  27.111  13.252  1.00 20.00    +0.157 HD
ATOM    100 H100 LIG A   1      20.262  26.749  14.055  1.00 20.00    +0.157 HD
ATOM    101 H101 LIG A   1      18.794  25.026  13.248  1.00 20.00    +0.058 H 
ATOM    102 H102 LIG A   1      18.733  25.092  11.462  1.00 20.00    +0.058 H 
ATOM    103 H103 LIG A   1      20.293  23.128  13.115  1.00 20.00    +0.163 HD
ATOM    104 H104 LIG A   1      20.004  20.813  11.609  1.00 20.00    +0.057 H 
ATOM    105 H105 LIG A   1      21.016  20.113   9.683  1.00 20.00    +0.029 H 
ATOM    106 H106 LIG A   1      21.690  21.702   9.305  1.00 20.00    +0.029 H 
ATOM    107 H107 LIG A   1      23.668  21.265  10.388  1.00 20.00    +0.028 H 
ATOM    108 H108 LIG A   1      23.216  19.558  10.230  1.00 20.00    +0.028 H 
ATOM    109 H109 LIG A   1      22.239  19.522  12.452  1.00 20.00    +0.043 H 
ATOM    110 H110 LIG A   1      23.656  20.567  12.687  1.00 20.00    +0.043 H 
ATOM    111 H111 LIG A   1      22.348  22.449  12.274  1.00 20.00    +0.123 HD
ENDROOT
TORSDOF 0
                                                                                                                  
ENDMDL
MODEL 9
REMARK VINA RESULT:   -10.597      2.696      5.159
REMARK INTER + INTRA:         -10.597
REMARK INTER:                 -10.597
REMARK INTRA:                   0.000
REMARK UNBOUND:                 0.000
ROOT
ATOM      1 C1   LIG A   1      26.346  19.241  12.071  1.00 20.00    -0.060 C 
ATOM      2 C2   LIG A   1      25.215  20.261  11.828  1.00 20.00    -0.016 C 
ATOM      3 C3   LIG A   1      25.435  20.921  10.424  1.00 20.00    -0.023 C 
ATOM      4 C4   LIG A   1      24.446  20.502   9.368  1.00 20.00    -0.044 A 
ATOM      5 C5   LIG A   1      24.465  19.214   8.831  1.00 20.00    -0.058 A 
ATOM      6 C6   LIG A   1      23.328  18.715   8.196  1.00 20.00    -0.054 A 
ATOM      7 C7   LIG A   1      22.152  19.484   8.125  1.00 20.00    +0.009 A 
ATOM      8 C8   LIG A   1      22.203  20.831   8.529  1.00 20.00    +0.130 A 
ATOM      9 C9   LIG A   1      23.374  21.353   9.081  1.00 20.00    -0.016 A 
ATOM     10 O10  LIG A   1      21.038  21.567   8.481  1.00 20.00    -0.464 OA
ATOM     11 C11  LIG A   1      20.820  22.522   9.453  1.00 20.00    +0.104 C 
ATOM     12 C12  LIG A   1      20.508  22.339  10.756  1.00 20.00    +0.082 C 
ATOM     13 C13  LIG A   1      20.233  23.525  11.608  1.00 20.00    -0.010 A 
ATOM     14 C14  LIG A   1      21.050  24.662  11.535  1.00 20.00    -0.052 A 
ATOM     15 C15  LIG A   1      20.799  25.785  12.333  1.00 20.00    -0.038 A 
ATOM     16 C16  LIG A   1      19.728  25.818  13.232  1.00 20.00    +0.034 A 
ATOM     17 N17  LIG A   1      19.586  26.949  14.038  1.00 20.00    -0.385 NA
ATOM     18 C18  LIG A   1      18.442  27.090  14.931  1.00 20.00    +0.016 C 
ATOM     19 C19  LIG A   1      18.516  28.411  15.705  1.00 20.00    -0.023 C 
ATOM     20 C20  LIG A   1      19.672  28.488  16.714  1.00 20.00    -0.003 C 
ATOM     21 N21  LIG A   1      21.019  28.424  16.137  1.00 20.00    -0.317 NA
ATOM     22 C22  LIG A   1      21.420  29.622  15.400  1.00 20.00    -0.005 C 
ATOM     23 C23  LIG A   1      21.815  30.811  16.282  1.00 20.00    -0.039 C 
ATOM     24 C24  LIG A   1      23.193  30.703  16.945  1.00 20.00    -0.040 C 
ATOM     25 C25  LIG A   1      23.327  29.559  17.950  1.00 20.00    -0.008 C 
ATOM     26 N26  LIG A   1      24.590  29.695  18.682  1.00 20.00    -0.330 NA
ATOM     27 C27  LIG A   1      18.953  24.664  13.350  1.00 20.00    -0.038 A 
ATOM     28 C28  LIG A   1      19.187  23.541  12.540  1.00 20.00    -0.052 A 
ATOM     29 C29  LIG A   1      20.317  20.941  11.285  1.00 20.00    +0.264 C 
ATOM     30 O30  LIG A   1      19.201  20.571  11.650  1.00 20.00    -0.268 OA
ATOM     31 N31  LIG A   1      21.432  20.109  11.297  1.00 20.00    -0.277 NA
ATOM     32 C32  LIG A   1      21.193  18.674  11.090  1.00 20.00    +0.029 C 
ATOM     33 C33  LIG A   1      20.031  18.203  10.185  1.00 20.00    -0.034 C 
ATOM     34 C34  LIG A   1      19.755  18.867   8.822  1.00 20.00    -0.034 C 
ATOM     35 C35  LIG A   1      20.856  18.795   7.731  1.00 20.00    +0.085 C 
ATOM     36 C36  LIG A   1      20.339  19.296   6.383  1.00 20.00    +0.311 C 
ATOM     37 O37  LIG A   1      20.874  20.085   5.621  1.00 20.00    -0.252 OA
ATOM     38 O38  LIG A   1      19.185  18.700   6.010  1.00 20.00    -0.481 OA
ATOM     39 C39  LIG A   1      22.617  20.583  11.891  1.00 20.00    +0.246 C 
ATOM     40 O40  LIG A   1      22.744  21.739  12.308  1.00 20.00    -0.273 OA
ATOM     41 C41  LIG A   1      23.816  19.602  12.092  1.00 20.00    +0.088 C 
ATOM     42 N42  LIG A   1      23.746  19.113  13.494  1.00 20.00    -0.320 NA
ATOM     43 N43  LIG A   1      22.799  24.906  14.771  1.00 20.00    -0.287 NA
ATOM     44 C44  LIG A   1      22.122  25.797  14.120  1.00 20.00    +0.110 C 
ATOM     45 N45  LIG A   1      21.139  26.472  14.780  1.00 20.00    -0.386 NA
ATOM     46 C46  LIG A   1      22.377  26.067  12.635  1.00 20.00    +0.075 C 
ATOM     47 N47  LIG A   1      21.849  24.946  11.892  1.00 20.00    -0.348 NA
ATOM     48 C48  LIG A   1      22.586  23.785  11.734  1.00 20.00    +0.237 C 
ATOM     49 O49  LIG A   1      23.764  23.692  12.060  1.00 20.00    -0.273 OA
ATOM     50 C50  LIG A   1      21.765  22.653  11.097  1.00 20.00    +0.087 C 
ATOM     51 C51  LIG A   1      22.371  21.262  11.262  1.00 20.00    -0.027 C 
ATOM     52 C52  LIG A   1      21.228  20.389  11.763  1.00 20.00    -0.039 C 
ATOM     53 C53  LIG A   1      19.982  21.205  11.489  1.00 20.00    -0.004 C 
ATOM     54 N54  LIG A   1      20.415  22.586  11.733  1.00 20.00    -0.306 NA
ATOM     55 H55  LIG A   1      26.335  18.862  13.099  1.00 20.00    +0.023 H 
ATOM     56 H56  LIG A   1      26.260  18.386  11.393  1.00 20.00    +0.023 H 
ATOM     57 H57  LIG A   1      27.327  19.702  11.915  1.00 20.00    +0.023 H 
ATOM     58 H58  LIG A   1      25.365  21.061  12.568  1.00 20.00    +0.032 H 
ATOM     59 H59  LIG A   1      25.383  22.011  10.553  1.00 20.00    +0.032 H 
ATOM     60 H60  LIG A   1      26.450  20.734  10.048  1.00 20.00    +0.032 H 
ATOM     61 H61  LIG A   1      25.319  18.560   8.994  1.00 20.00    +0.063 H 
ATOM     62 H62  LIG A   1      23.337  17.684   7.850  1.00 20.00    +0.063 H 
ATOM     63 H63  LIG A   1      23.394  22.377   9.447  1.00 20.00    +0.067 H 
ATOM     64 H64  LIG A   1      20.868  23.497   8.981  1.00 20.00    +0.105 H 
ATOM     65 H65  LIG A   1      21.916  24.682  10.877  1.00 20.00    +0.063 H 
ATOM     66 H66  LIG A   1      21.471  26.638  12.256  1.00 20.00    +0.064 H 
ATOM     67 H67  LIG A   1      19.792  27.798  13.512  1.00 20.00    +0.160 HD
ATOM     68 H68  LIG A   1      17.514  27.080  14.348  1.00 20.00    +0.049 H 
ATOM     69 H69  LIG A   1      18.407  26.260  15.646  1.00 20.00    +0.049 H 
ATOM     70 H70  LIG A   1      17.579  28.524  16.265  1.00 20.00    +0.030 H 
ATOM     71 H71  LIG A   1      18.556  29.254  15.006  1.00 20.00    +0.030 H 
ATOM     72 H72  LIG A   1      19.577  27.645  17.408  1.00 20.00    +0.043 H 
ATOM     73 H73  LIG A   1      19.560  29.387  17.330  1.00 20.00    +0.043 H 
ATOM     74 H74  LIG A   1      21.027  27.626  15.487  1.00 20.00    +0.122 HD
ATOM     75 H75  LIG A   1      22.282  29.359  14.772  1.00 20.00    +0.043 H 
ATOM     76 H76  LIG A   1      20.635  29.929  14.702  1.00 20.00    +0.043 H 
ATOM     77 H77  LIG A   1      21.053  31.007  17.044  1.00 20.00    +0.028 H 
ATOM     78 H78  LIG A   1      21.830  31.704  15.643  1.00 20.00    +0.028 H 
ATOM     79 H79  LIG A   1      23.389  31.657  17.450  1.00 20.00    +0.028 H 
ATOM     80 H80  LIG A   1      23.961  30.603  16.169  1.00 20.00    +0.028 H 
ATOM     81 H81  LIG A   1      22.497  29.571  18.662  1.00 20.00    +0.043 H 
ATOM     82 H82  LIG A   1      23.337  28.591  17.439  1.00 20.00    +0.043 H 
ATOM     83 H83  LIG A   1      24.654  28.952  19.378  1.00 20.00    +0.118 HD
ATOM     84 H84  LIG A   1      24.579  30.573  19.202  1.00 20.00    +0.118 HD
ATOM     85 H85  LIG A   1      18.138  24.604  14.065  1.00 20.00    +0.064 H 
ATOM     86 H86  LIG A   1      18.531  22.681  12.657  1.00 20.00    +0.063 H 
ATOM     87 H87  LIG A   1      22.091  18.217  10.677  1.00 20.00    +0.050 H 
ATOM     88 H88  LIG A   1      21.061  18.229  12.085  1.00 20.00    +0.050 H 
ATOM     89 H89  LIG A   1      19.102  18.267  10.768  1.00 20.00    +0.029 H 
ATOM     90 H90  LIG A   1      20.170  17.129  10.011  1.00 20.00    +0.029 H 
ATOM     91 H91  LIG A   1      18.870  18.351   8.427  1.00 20.00    +0.028 H 
ATOM     92 H92  LIG A   1      19.408  19.893   8.966  1.00 20.00    +0.028 H 
ATOM     93 H93  LIG A   1      21.079  17.733   7.567  1.00 20.00    +0.047 H 
ATOM     94 H94  LIG A   1      18.993  19.094   5.133  1.00 20.00    +0.296 HD
ATOM     95 H95  LIG A   1      23.747  18.727  11.452  1.00 20.00    +0.057 H 
ATOM     96 H96  LIG A   1      23.886  19.918  14.111  1.00 20.00    +0.119 HD
ATOM     97 H97  LIG A   1      22.800  18.789  13.704  1.00 20.00    +0.119 HD
ATOM     98 H98  LIG A   1      23.472  24.454  14.125  1.00 20.00    +0.189 HD
ATOM     99 H99  LIG A   1      21.216  26.345  15.786  1.00 20.00    +0.157 HD
ATOM    100 H100 LIG A   1      21.007  27.443  14.518  1.00 20.00    +0.157 HD
ATOM    101 H101 LIG A   1      21.846  26.967  12.318  1.00 20.00    +0.058 H 
ATOM    102 H102 LIG A   1      23.447  26.182  12.454  1.00 20.00    +0.058 H 
ATOM    103 H103 LIG A   1      20.840  24.810  11.864  1.00 20.00    +0.163 HD
ATOM    104 H104 LIG A   1      21.649  22.888  10.032  1.00 20.00    +0.057 H 
ATOM    105 H105 LIG A   1      22.729  20.891  10.296  1.00 20.00    +0.029 H 
ATOM    106 H106 LIG A   1      23.211  21.222  11.963  1.00 20.00    +0.029 H 
ATOM    107 H107 LIG A   1      21.340  20.218  12.841  1.00 20.00    +0.028 H 
ATOM    108 H108 LIG A   1      21.204  19.414  11.267  1.00 20.00    +0.028 H 
ATOM    109 H109 LIG A   1      19.654  21.093  10.448  1.00 20.00    +0.043 H 
ATOM    110 H110 LIG A   1      19.152  20.921  12.143  1.00 20.00    +0.043 H 
ATOM    111 H111 LIG A   1      20.553  22.681  12.745  1.00 20.00    +0.123 HD
ENDROOT
TORSDOF 0
                                                                                                                  
ENDMDL
