ROOT
ATOM      1 C1   LIG A   1      -7.998   0.247  -0.422  1.00 20.00    -0.060 C 
ATOM      2 C2   LIG A   1      -6.548  -0.260  -0.532  1.00 20.00    -0.016 C 
ATOM      3 C3   LIG A   1      -5.602   0.946  -0.772  1.00 20.00    -0.023 C 
ATOM      4 C4   LIG A   1      -4.296   0.623  -1.481  1.00 20.00    -0.046 C 
ATOM      5 C5   LIG A   1      -3.171   1.373  -1.529  1.00 20.00    -0.059 C 
ATOM      6 C6   LIG A   1      -2.803   2.328  -0.493  1.00 20.00    -0.054 C 
ATOM      7 C7   LIG A   1      -1.524   2.450  -0.053  1.00 20.00    +0.009 C 
ATOM      8 C8   LIG A   1      -0.407   2.168  -0.919  1.00 20.00    +0.131 A 
ATOM      9 C9   LIG A   1      -0.176   2.519  -2.244  1.00 20.00    -0.015 A 
ATOM     10 C10  LIG A   1       1.106   2.042  -2.607  1.00 20.00    -0.015 A 
ATOM     11 C11  LIG A   1       1.629   1.439  -1.484  1.00 20.00    +0.134 A 
ATOM     12 C12  LIG A   1       2.895   0.783  -1.165  1.00 20.00    +0.017 A 
ATOM     13 C13  LIG A   1       3.896   0.646  -2.134  1.00 20.00    -0.049 A 
ATOM     14 C14  LIG A   1       5.119   0.028  -1.831  1.00 20.00    -0.038 A 
ATOM     15 C15  LIG A   1       5.371  -0.501  -0.563  1.00 20.00    +0.034 A 
ATOM     16 N16  LIG A   1       6.597  -1.054  -0.173  1.00 20.00    -0.385 NA
ATOM     17 C17  LIG A   1       7.511  -1.578  -1.189  1.00 20.00    +0.022 C 
ATOM     18 C18  LIG A   1       8.794  -2.089  -0.536  1.00 20.00    +0.022 C 
ATOM     19 C19  LIG A   1       8.543  -3.376   0.216  1.00 20.00    +0.092 C 
ATOM     20 N20  LIG A   1       8.740  -4.534  -0.322  1.00 20.00    -0.289 NA
ATOM     21 N21  LIG A   1       8.092  -3.326   1.500  1.00 20.00    -0.388 NA
ATOM     22 C22  LIG A   1       4.381  -0.328   0.413  1.00 20.00    -0.038 A 
ATOM     23 C23  LIG A   1       3.159   0.290   0.117  1.00 20.00    -0.049 A 
ATOM     24 O24  LIG A   1       0.719   1.514  -0.473  1.00 20.00    -0.456 OA
ATOM     25 C25  LIG A   1      -1.321   2.701   1.443  1.00 20.00    +0.085 C 
ATOM     26 C26  LIG A   1      -0.186   3.703   1.633  1.00 20.00    +0.311 C 
ATOM     27 O27  LIG A   1      -0.130   4.821   1.140  1.00 20.00    -0.252 OA
ATOM     28 O28  LIG A   1       0.807   3.287   2.442  1.00 20.00    -0.481 OA
ATOM     29 C29  LIG A   1      -1.118   1.357   2.208  1.00 20.00    -0.034 C 
ATOM     30 C30  LIG A   1      -2.366   0.450   2.233  1.00 20.00    -0.034 C 
ATOM     31 C31  LIG A   1      -2.343  -0.794   1.301  1.00 20.00    +0.025 C 
ATOM     32 N32  LIG A   1      -3.642  -1.072   0.641  1.00 20.00    -0.318 NA
ATOM     33 C33  LIG A   1      -3.618  -1.542  -0.669  1.00 20.00    +0.007 C 
ATOM     34 C34  LIG A   1      -4.017  -0.792  -1.712  1.00 20.00    -0.043 C 
ATOM     35 C35  LIG A   1      -4.814  -1.004   1.396  1.00 20.00    +0.243 C 
ATOM     36 O36  LIG A   1      -4.782  -0.896   2.629  1.00 20.00    -0.273 OA
ATOM     37 C37  LIG A   1      -6.208  -1.122   0.714  1.00 20.00    +0.088 C 
ATOM     38 N38  LIG A   1      -6.558  -2.546   0.498  1.00 20.00    -0.320 NA
ATOM     39 O39  LIG A   1       3.074   1.475   1.493  1.00 20.00    -0.251 OA
ATOM     40 C40  LIG A   1       1.886   1.219   1.380  1.00 20.00    +0.317 C 
ATOM     41 O41  LIG A   1       0.956   2.117   1.774  1.00 20.00    -0.480 OA
ATOM     42 C42  LIG A   1       1.290  -0.098   0.903  1.00 20.00    +0.094 C 
ATOM     43 N43  LIG A   1       0.020   0.133   0.187  1.00 20.00    -0.306 NA
ATOM     44 C44  LIG A   1      -0.696  -1.129  -0.037  1.00 20.00    +0.005 C 
ATOM     45 C45  LIG A   1      -1.988  -0.923  -0.838  1.00 20.00    +0.003 C 
ATOM     46 S46  LIG A   1      -1.662  -0.297  -2.516  1.00 20.00    -0.178 SA
ATOM     47 H47  LIG A   1      -8.111   0.950   0.410  1.00 20.00    +0.023 H 
ATOM     48 H48  LIG A   1      -8.300   0.761  -1.341  1.00 20.00    +0.023 H 
ATOM     49 H49  LIG A   1      -8.694  -0.584  -0.266  1.00 20.00    +0.023 H 
ATOM     50 H50  LIG A   1      -6.542  -0.896  -1.428  1.00 20.00    +0.032 H 
ATOM     51 H51  LIG A   1      -6.118   1.668  -1.418  1.00 20.00    +0.032 H 
ATOM     52 H52  LIG A   1      -5.430   1.457   0.181  1.00 20.00    +0.032 H 
ATOM     53 H53  LIG A   1      -2.327   0.940  -2.068  1.00 20.00    +0.063 H 
ATOM     54 H54  LIG A   1      -3.608   2.613   0.181  1.00 20.00    +0.063 H 
ATOM     55 H55  LIG A   1      -0.862   3.074  -2.871  1.00 20.00    +0.066 H 
ATOM     56 H56  LIG A   1       1.592   2.151  -3.565  1.00 20.00    +0.066 H 
ATOM     57 H57  LIG A   1       3.750   1.029  -3.141  1.00 20.00    +0.063 H 
ATOM     58 H58  LIG A   1       5.865  -0.024  -2.618  1.00 20.00    +0.064 H 
ATOM     59 H59  LIG A   1       6.456  -1.729   0.582  1.00 20.00    +0.160 HD
ATOM     60 H60  LIG A   1       7.795  -0.781  -1.885  1.00 20.00    +0.049 H 
ATOM     61 H61  LIG A   1       7.024  -2.381  -1.755  1.00 20.00    +0.049 H 
ATOM     62 H62  LIG A   1       9.204  -1.343   0.154  1.00 20.00    +0.037 H 
ATOM     63 H63  LIG A   1       9.549  -2.277  -1.308  1.00 20.00    +0.037 H 
ATOM     64 H64  LIG A   1       9.072  -4.441  -1.287  1.00 20.00    +0.189 HD
ATOM     65 H65  LIG A   1       8.200  -4.222   1.967  1.00 20.00    +0.157 HD
ATOM     66 H66  LIG A   1       8.410  -2.543   2.061  1.00 20.00    +0.157 HD
ATOM     67 H67  LIG A   1       4.554  -0.675   1.429  1.00 20.00    +0.064 H 
ATOM     68 H68  LIG A   1       2.422   0.392   0.911  1.00 20.00    +0.063 H 
ATOM     69 H69  LIG A   1      -2.201   3.196   1.879  1.00 20.00    +0.047 H 
ATOM     70 H70  LIG A   1       1.452   4.024   2.411  1.00 20.00    +0.296 HD
ATOM     71 H71  LIG A   1      -0.248   0.806   1.835  1.00 20.00    +0.028 H 
ATOM     72 H72  LIG A   1      -0.884   1.607   3.252  1.00 20.00    +0.028 H 
ATOM     73 H73  LIG A   1      -3.256   1.065   2.059  1.00 20.00    +0.029 H 
ATOM     74 H74  LIG A   1      -2.467   0.072   3.260  1.00 20.00    +0.029 H 
ATOM     75 H75  LIG A   1      -1.583  -0.663   0.522  1.00 20.00    +0.050 H 
ATOM     76 H76  LIG A   1      -2.077  -1.684   1.883  1.00 20.00    +0.050 H 
ATOM     77 H77  LIG A   1      -3.186  -2.529  -0.810  1.00 20.00    +0.082 H 
ATOM     78 H78  LIG A   1      -3.974  -1.156  -2.734  1.00 20.00    +0.064 H 
ATOM     79 H79  LIG A   1      -6.891  -0.785   1.507  1.00 20.00    +0.057 H 
ATOM     80 H80  LIG A   1      -5.890  -2.953  -0.154  1.00 20.00    +0.119 HD
ATOM     81 H81  LIG A   1      -6.424  -3.040   1.383  1.00 20.00    +0.119 HD
ATOM     82 H82  LIG A   1       1.488   2.893   2.050  1.00 20.00    +0.296 HD
ATOM     83 H83  LIG A   1       2.007  -0.574   0.227  1.00 20.00    +0.055 H 
ATOM     84 H84  LIG A   1       1.142  -0.727   1.788  1.00 20.00    +0.055 H 
ATOM     85 H85  LIG A   1      -0.549   0.769   0.754  1.00 20.00    +0.123 HD
ATOM     86 H86  LIG A   1      -0.050  -1.843  -0.560  1.00 20.00    +0.044 H 
ATOM     87 H87  LIG A   1      -0.960  -1.573   0.930  1.00 20.00    +0.044 H 
ATOM     88 H88  LIG A   1      -2.528  -1.872  -0.925  1.00 20.00    +0.039 H 
ATOM     89 H89  LIG A   1      -2.645  -0.212  -0.325  1.00 20.00    +0.039 H 
ATOM     90 H90  LIG A   1      -0.784   0.643  -2.126  1.00 20.00    +0.102 HD
ENDROOT
TORSDOF 0
