ROOT
ATOM      1 C1   LIG A   1      -0.630   0.771   2.580  1.00 20.00    -0.060 C 
ATOM      2 C2   LIG A   1       0.040   0.747   1.199  1.00 20.00    -0.016 C 
ATOM      3 C3   LIG A   1      -0.850   1.427   0.125  1.00 20.00    -0.022 C 
ATOM      4 C4   LIG A   1      -2.047   0.577  -0.293  1.00 20.00    -0.029 A 
ATOM      5 C5   LIG A   1      -1.865  -0.495  -1.222  1.00 20.00    +0.004 A 
ATOM      6 C6   LIG A   1      -0.635  -0.828  -1.851  1.00 20.00    -0.053 A 
ATOM      7 C7   LIG A   1      -0.529  -1.896  -2.742  1.00 20.00    -0.062 A 
ATOM      8 C8   LIG A   1      -1.650  -2.655  -3.030  1.00 20.00    -0.060 A 
ATOM      9 C9   LIG A   1      -2.866  -2.335  -2.426  1.00 20.00    -0.036 A 
ATOM     10 C10  LIG A   1      -2.994  -1.276  -1.538  1.00 20.00    +0.071 A 
ATOM     11 N11  LIG A   1      -4.207  -1.052  -1.022  1.00 20.00    -0.248 NA
ATOM     12 C12  LIG A   1      -4.386  -0.038  -0.167  1.00 20.00    +0.071 A 
ATOM     13 C13  LIG A   1      -5.670   0.151   0.328  1.00 20.00    -0.036 A 
ATOM     14 C14  LIG A   1      -5.975   1.172   1.228  1.00 20.00    -0.060 A 
ATOM     15 C15  LIG A   1      -4.972   2.028   1.648  1.00 20.00    -0.062 A 
ATOM     16 C16  LIG A   1      -3.674   1.855   1.164  1.00 20.00    -0.053 A 
ATOM     17 C17  LIG A   1      -3.347   0.821   0.246  1.00 20.00    +0.004 A 
ATOM     18 C18  LIG A   1       1.459   1.367   1.289  1.00 20.00    +0.087 C 
ATOM     19 N19  LIG A   1       1.425   2.833   1.496  1.00 20.00    -0.320 NA
ATOM     20 C20  LIG A   1       2.291   1.042   0.025  1.00 20.00    +0.240 C 
ATOM     21 O21  LIG A   1       2.345   1.842  -0.915  1.00 20.00    -0.273 OA
ATOM     22 N22  LIG A   1       2.951  -0.164  -0.027  1.00 20.00    -0.328 NA
ATOM     23 C23  LIG A   1       2.949  -1.237   0.949  1.00 20.00    +0.022 C 
ATOM     24 C24  LIG A   1       3.160  -2.477   0.099  1.00 20.00    -0.033 C 
ATOM     25 C25  LIG A   1       4.118  -1.995  -0.984  1.00 20.00    -0.020 C 
ATOM     26 C26  LIG A   1       3.734  -0.527  -1.214  1.00 20.00    +0.129 C 
ATOM     27 C27  LIG A   1       5.014   0.291  -1.413  1.00 20.00    +0.326 C 
ATOM     28 O28  LIG A   1       5.744   0.231  -2.393  1.00 20.00    -0.250 OA
ATOM     29 O29  LIG A   1       5.369   1.057  -0.359  1.00 20.00    -0.480 OA
ATOM     30 C30  LIG A   1      -2.451  -1.052   0.833  1.00 20.00    -0.044 C 
ATOM     31 C31  LIG A   1      -1.218  -0.516   0.048  1.00 20.00    +0.047 C 
ATOM     32 C32  LIG A   1      -1.282  -1.135  -1.370  1.00 20.00    -0.044 C 
ATOM     33 C33  LIG A   1      -1.421   1.027  -0.056  1.00 20.00    -0.006 C 
ATOM     34 C34  LIG A   1      -0.134   1.841   0.077  1.00 20.00    +0.058 C 
ATOM     35 O35  LIG A   1      -0.299   3.107  -0.578  1.00 20.00    -0.393 OA
ATOM     36 C36  LIG A   1       1.047   1.104  -0.523  1.00 20.00    -0.006 C 
ATOM     37 C37  LIG A   1       1.309  -0.229   0.228  1.00 20.00    +0.047 C 
ATOM     38 C38  LIG A   1       2.107  -1.148  -0.735  1.00 20.00    -0.044 C 
ATOM     39 C39  LIG A   1       2.233   0.084   1.437  1.00 20.00    -0.044 C 
ATOM     40 N40  LIG A   1       0.040  -0.774   0.783  1.00 20.00    -0.144 NA
ATOM     41 O41  LIG A   1       0.183  -2.167   1.096  1.00 20.00    -0.120 OA
ATOM     42 H42  LIG A   1      -1.563   0.200   2.577  1.00 20.00    +0.023 H 
ATOM     43 H43  LIG A   1       0.020   0.314   3.334  1.00 20.00    +0.023 H 
ATOM     44 H44  LIG A   1      -0.855   1.792   2.903  1.00 20.00    +0.023 H 
ATOM     45 H45  LIG A   1       0.153  -0.309   0.925  1.00 20.00    +0.032 H 
ATOM     46 H46  LIG A   1      -1.166   2.418   0.463  1.00 20.00    +0.032 H 
ATOM     47 H47  LIG A   1      -0.272   1.651  -0.779  1.00 20.00    +0.032 H 
ATOM     48 H48  LIG A   1       0.263  -0.248  -1.664  1.00 20.00    +0.063 H 
ATOM     49 H49  LIG A   1       0.423  -2.123  -3.213  1.00 20.00    +0.062 H 
ATOM     50 H50  LIG A   1      -1.590  -3.489  -3.724  1.00 20.00    +0.062 H 
ATOM     51 H51  LIG A   1      -3.747  -2.930  -2.660  1.00 20.00    +0.065 H 
ATOM     52 H52  LIG A   1      -6.460  -0.520  -0.000  1.00 20.00    +0.065 H 
ATOM     53 H53  LIG A   1      -6.991   1.291   1.593  1.00 20.00    +0.062 H 
ATOM     54 H54  LIG A   1      -5.191   2.829   2.349  1.00 20.00    +0.062 H 
ATOM     55 H55  LIG A   1      -2.919   2.548   1.524  1.00 20.00    +0.063 H 
ATOM     56 H56  LIG A   1       1.987   0.949   2.154  1.00 20.00    +0.057 H 
ATOM     57 H57  LIG A   1       2.386   3.151   1.637  1.00 20.00    +0.119 HD
ATOM     58 H58  LIG A   1       1.173   3.258   0.597  1.00 20.00    +0.119 HD
ATOM     59 H59  LIG A   1       2.028  -1.284   1.532  1.00 20.00    +0.049 H 
ATOM     60 H60  LIG A   1       3.792  -1.071   1.627  1.00 20.00    +0.049 H 
ATOM     61 H61  LIG A   1       3.555  -3.321   0.672  1.00 20.00    +0.029 H 
ATOM     62 H62  LIG A   1       2.213  -2.784  -0.360  1.00 20.00    +0.029 H 
ATOM     63 H63  LIG A   1       5.152  -2.089  -0.628  1.00 20.00    +0.029 H 
ATOM     64 H64  LIG A   1       4.033  -2.588  -1.900  1.00 20.00    +0.029 H 
ATOM     65 H65  LIG A   1       3.096  -0.396  -2.095  1.00 20.00    +0.065 H 
ATOM     66 H66  LIG A   1       6.177   1.517  -0.666  1.00 20.00    +0.296 HD
ATOM     67 H67  LIG A   1      -3.386  -0.711   0.372  1.00 20.00    +0.025 H 
ATOM     68 H68  LIG A   1      -2.449  -0.694   1.870  1.00 20.00    +0.025 H 
ATOM     69 H69  LIG A   1      -2.488  -2.147   0.853  1.00 20.00    +0.025 H 
ATOM     70 H70  LIG A   1      -1.121  -2.218  -1.352  1.00 20.00    +0.025 H 
ATOM     71 H71  LIG A   1      -2.269  -0.969  -1.820  1.00 20.00    +0.025 H 
ATOM     72 H72  LIG A   1      -0.552  -0.697  -2.055  1.00 20.00    +0.025 H 
ATOM     73 H73  LIG A   1      -1.924   1.280  -0.999  1.00 20.00    +0.031 H 
ATOM     74 H74  LIG A   1      -2.102   1.387   0.728  1.00 20.00    +0.031 H 
ATOM     75 H75  LIG A   1       0.060   2.060   1.133  1.00 20.00    +0.060 H 
ATOM     76 H76  LIG A   1      -1.072   3.520  -0.159  1.00 20.00    +0.210 HD
ATOM     77 H77  LIG A   1       0.853   0.934  -1.590  1.00 20.00    +0.031 H 
ATOM     78 H78  LIG A   1       1.935   1.751  -0.503  1.00 20.00    +0.031 H 
ATOM     79 H79  LIG A   1       2.978  -0.617  -1.139  1.00 20.00    +0.025 H 
ATOM     80 H80  LIG A   1       2.491  -2.043  -0.233  1.00 20.00    +0.025 H 
ATOM     81 H81  LIG A   1       1.506  -1.474  -1.589  1.00 20.00    +0.025 H 
ATOM     82 H82  LIG A   1       3.162   0.565   1.109  1.00 20.00    +0.025 H 
ATOM     83 H83  LIG A   1       2.517  -0.826   1.979  1.00 20.00    +0.025 H 
ATOM     84 H84  LIG A   1       1.749   0.758   2.153  1.00 20.00    +0.025 H 
ENDROOT
TORSDOF 0
