ROOT
ATOM      1 N1   LIG A   1      -8.305   1.316  -0.585  1.00 20.00    -0.330 NA
ATOM      2 C2   LIG A   1      -7.858   0.156   0.176  1.00 20.00    -0.008 C 
ATOM      3 C3   LIG A   1      -6.561   0.428   0.942  1.00 20.00    -0.040 C 
ATOM      4 C4   LIG A   1      -5.352   0.664   0.029  1.00 20.00    -0.039 C 
ATOM      5 C5   LIG A   1      -4.056   0.955   0.797  1.00 20.00    -0.005 C 
ATOM      6 N6   LIG A   1      -3.603  -0.084   1.724  1.00 20.00    -0.317 NA
ATOM      7 C7   LIG A   1      -3.297  -1.376   1.112  1.00 20.00    -0.003 C 
ATOM      8 C8   LIG A   1      -2.138  -1.363   0.111  1.00 20.00    -0.023 C 
ATOM      9 C9   LIG A   1      -0.831  -0.865   0.730  1.00 20.00    +0.016 C 
ATOM     10 N10  LIG A   1       0.250  -1.009  -0.247  1.00 20.00    -0.385 NA
ATOM     11 C11  LIG A   1       1.537  -0.562   0.069  1.00 20.00    +0.035 A 
ATOM     12 C12  LIG A   1       1.995  -0.377   1.379  1.00 20.00    -0.038 A 
ATOM     13 C13  LIG A   1       3.319  -0.004   1.640  1.00 20.00    -0.048 A 
ATOM     14 C14  LIG A   1       4.220   0.165   0.587  1.00 20.00    +0.034 A 
ATOM     15 C15  LIG A   1       3.795  -0.048  -0.720  1.00 20.00    +0.036 A 
ATOM     16 C16  LIG A   1       2.467  -0.423  -0.972  1.00 20.00    -0.027 A 
ATOM     17 C17  LIG A   1       4.735   0.111  -1.847  1.00 20.00    +0.194 C 
ATOM     18 O18  LIG A   1       4.360  -0.065  -3.000  1.00 20.00    -0.289 OA
ATOM     19 C19  LIG A   1       6.134   0.492  -1.567  1.00 20.00    +0.034 A 
ATOM     20 C20  LIG A   1       7.038   0.639  -2.627  1.00 20.00    -0.050 A 
ATOM     21 C21  LIG A   1       8.362   1.001  -2.372  1.00 20.00    -0.061 A 
ATOM     22 C22  LIG A   1       8.787   1.216  -1.061  1.00 20.00    -0.061 A 
ATOM     23 C23  LIG A   1       7.888   1.070  -0.003  1.00 20.00    -0.050 A 
ATOM     24 C24  LIG A   1       6.559   0.707  -0.257  1.00 20.00    +0.034 A 
ATOM     25 C25  LIG A   1       5.615   0.555   0.869  1.00 20.00    +0.194 C 
ATOM     26 O26  LIG A   1       5.986   0.750   2.020  1.00 20.00    -0.289 OA
ATOM     27 N27  LIG A   1       3.167  -0.717  -0.326  1.00 20.00    -0.328 NA
ATOM     28 C28  LIG A   1       1.798  -0.301  -0.629  1.00 20.00    +0.016 C 
ATOM     29 C29  LIG A   1       1.105   0.394   0.552  1.00 20.00    +0.059 C 
ATOM     30 O30  LIG A   1      -0.171   0.925   0.191  1.00 20.00    -0.378 OA
ATOM     31 C31  LIG A   1      -1.202  -0.059   0.158  1.00 20.00    +0.070 C 
ATOM     32 C32  LIG A   1      -2.522   0.608  -0.216  1.00 20.00    +0.067 C 
ATOM     33 O33  LIG A   1      -3.591  -0.330  -0.188  1.00 20.00    -0.394 OA
ATOM     34 H34  LIG A   1      -9.198   1.103  -1.029  1.00 20.00    +0.118 HD
ATOM     35 H35  LIG A   1      -7.655   1.506  -1.346  1.00 20.00    +0.118 HD
ATOM     36 H36  LIG A   1      -7.730  -0.699  -0.496  1.00 20.00    +0.043 H 
ATOM     37 H37  LIG A   1      -8.641  -0.109   0.895  1.00 20.00    +0.043 H 
ATOM     38 H38  LIG A   1      -6.370  -0.437   1.587  1.00 20.00    +0.028 H 
ATOM     39 H39  LIG A   1      -6.697   1.292   1.605  1.00 20.00    +0.028 H 
ATOM     40 H40  LIG A   1      -5.546   1.526  -0.621  1.00 20.00    +0.028 H 
ATOM     41 H41  LIG A   1      -5.215  -0.196  -0.637  1.00 20.00    +0.028 H 
ATOM     42 H42  LIG A   1      -4.200   1.872   1.382  1.00 20.00    +0.043 H 
ATOM     43 H43  LIG A   1      -3.260   1.193   0.083  1.00 20.00    +0.043 H 
ATOM     44 H44  LIG A   1      -4.308  -0.216   2.449  1.00 20.00    +0.122 HD
ATOM     45 H45  LIG A   1      -4.188  -1.800   0.636  1.00 20.00    +0.043 H 
ATOM     46 H46  LIG A   1      -3.038  -2.069   1.923  1.00 20.00    +0.043 H 
ATOM     47 H47  LIG A   1      -1.994  -2.386  -0.260  1.00 20.00    +0.030 H 
ATOM     48 H48  LIG A   1      -2.394  -0.759  -0.768  1.00 20.00    +0.030 H 
ATOM     49 H49  LIG A   1      -0.612  -1.463   1.622  1.00 20.00    +0.049 H 
ATOM     50 H50  LIG A   1      -0.927   0.186   1.024  1.00 20.00    +0.049 H 
ATOM     51 H51  LIG A   1      -0.025  -0.719  -1.183  1.00 20.00    +0.160 HD
ATOM     52 H52  LIG A   1       1.333  -0.520   2.229  1.00 20.00    +0.064 H 
ATOM     53 H53  LIG A   1       3.640   0.144   2.670  1.00 20.00    +0.063 H 
ATOM     54 H54  LIG A   1       2.155  -0.611  -1.998  1.00 20.00    +0.065 H 
ATOM     55 H55  LIG A   1       6.714   0.473  -3.653  1.00 20.00    +0.063 H 
ATOM     56 H56  LIG A   1       9.062   1.114  -3.197  1.00 20.00    +0.062 H 
ATOM     57 H57  LIG A   1       9.818   1.497  -0.862  1.00 20.00    +0.062 H 
ATOM     58 H58  LIG A   1       8.227   1.240   1.018  1.00 20.00    +0.063 H 
ATOM     59 H59  LIG A   1       3.726   0.101  -0.086  1.00 20.00    +0.118 HD
ATOM     60 H60  LIG A   1       3.173  -1.319   0.496  1.00 20.00    +0.118 HD
ATOM     61 H61  LIG A   1       1.807   0.370  -1.496  1.00 20.00    +0.045 H 
ATOM     62 H62  LIG A   1       1.226  -1.182  -0.937  1.00 20.00    +0.045 H 
ATOM     63 H63  LIG A   1       1.714   1.246   0.875  1.00 20.00    +0.058 H 
ATOM     64 H64  LIG A   1       1.009  -0.278   1.413  1.00 20.00    +0.058 H 
ATOM     65 H65  LIG A   1      -0.971  -0.842  -0.573  1.00 20.00    +0.059 H 
ATOM     66 H66  LIG A   1      -1.295  -0.536   1.141  1.00 20.00    +0.059 H 
ATOM     67 H67  LIG A   1      -2.458   1.032  -1.224  1.00 20.00    +0.059 H 
ATOM     68 H68  LIG A   1      -2.753   1.435   0.464  1.00 20.00    +0.059 H 
ATOM     69 H69  LIG A   1      -3.762  -0.546   0.745  1.00 20.00    +0.210 HD
ENDROOT
TORSDOF 0
