ROOT
ATOM      1 N1   LIG A   1       5.020   1.556  -1.654  1.00 20.00    -0.330 NA
ATOM      2 C2   LIG A   1       5.932   1.067  -0.630  1.00 20.00    -0.008 C 
ATOM      3 C3   LIG A   1       5.880  -0.456  -0.496  1.00 20.00    -0.040 C 
ATOM      4 C4   LIG A   1       4.499  -1.041  -0.170  1.00 20.00    -0.039 C 
ATOM      5 C5   LIG A   1       3.907  -0.499   1.134  1.00 20.00    -0.005 C 
ATOM      6 N6   LIG A   1       2.715  -1.237   1.570  1.00 20.00    -0.317 NA
ATOM      7 C7   LIG A   1       1.547  -0.953   0.727  1.00 20.00    -0.003 C 
ATOM      8 C8   LIG A   1       0.329  -1.698   1.280  1.00 20.00    -0.023 C 
ATOM      9 C9   LIG A   1      -0.909  -1.506   0.402  1.00 20.00    +0.017 C 
ATOM     10 N10  LIG A   1      -1.384  -0.127   0.499  1.00 20.00    -0.370 NA
ATOM     11 C11  LIG A   1      -2.558   0.119  -0.218  1.00 20.00    +0.126 A 
ATOM     12 C12  LIG A   1      -2.628  -0.041  -1.594  1.00 20.00    -0.019 A 
ATOM     13 C13  LIG A   1      -3.827   0.235  -2.243  1.00 20.00    -0.049 A 
ATOM     14 C14  LIG A   1      -4.927   0.674  -1.502  1.00 20.00    +0.000 A 
ATOM     15 C15  LIG A   1      -6.161   0.967  -2.108  1.00 20.00    -0.053 A 
ATOM     16 C16  LIG A   1      -7.236   1.407  -1.338  1.00 20.00    -0.062 A 
ATOM     17 C17  LIG A   1      -7.081   1.554   0.035  1.00 20.00    -0.060 A 
ATOM     18 C18  LIG A   1      -5.851   1.262   0.633  1.00 20.00    -0.036 A 
ATOM     19 C19  LIG A   1      -4.763   0.821  -0.109  1.00 20.00    +0.073 A 
ATOM     20 N20  LIG A   1      -3.601   0.551   0.514  1.00 20.00    -0.231 NA
ATOM     21 N21  LIG A   1       3.179  -0.664  -0.322  1.00 20.00    -0.328 NA
ATOM     22 C22  LIG A   1       1.812  -0.236  -0.618  1.00 20.00    +0.016 C 
ATOM     23 C23  LIG A   1       1.092   0.361   0.601  1.00 20.00    +0.059 C 
ATOM     24 O24  LIG A   1      -0.182   0.908   0.258  1.00 20.00    -0.378 OA
ATOM     25 C25  LIG A   1      -1.204  -0.079   0.131  1.00 20.00    +0.070 C 
ATOM     26 C26  LIG A   1      -2.523   0.605  -0.215  1.00 20.00    +0.067 C 
ATOM     27 O27  LIG A   1      -3.584  -0.341  -0.278  1.00 20.00    -0.394 OA
ATOM     28 H28  LIG A   1       5.258   1.140  -2.554  1.00 20.00    +0.118 HD
ATOM     29 H29  LIG A   1       5.138   2.562  -1.764  1.00 20.00    +0.118 HD
ATOM     30 H30  LIG A   1       6.954   1.367  -0.888  1.00 20.00    +0.043 H 
ATOM     31 H31  LIG A   1       5.693   1.544   0.326  1.00 20.00    +0.043 H 
ATOM     32 H32  LIG A   1       6.236  -0.912  -1.429  1.00 20.00    +0.028 H 
ATOM     33 H33  LIG A   1       6.589  -0.760   0.284  1.00 20.00    +0.028 H 
ATOM     34 H34  LIG A   1       3.819  -0.852  -1.007  1.00 20.00    +0.028 H 
ATOM     35 H35  LIG A   1       4.605  -2.131  -0.095  1.00 20.00    +0.028 H 
ATOM     36 H36  LIG A   1       4.660  -0.601   1.926  1.00 20.00    +0.043 H 
ATOM     37 H37  LIG A   1       3.680   0.570   1.054  1.00 20.00    +0.043 H 
ATOM     38 H38  LIG A   1       2.497  -0.951   2.526  1.00 20.00    +0.122 HD
ATOM     39 H39  LIG A   1       1.349   0.125   0.709  1.00 20.00    +0.043 H 
ATOM     40 H40  LIG A   1       1.728  -1.286  -0.300  1.00 20.00    +0.043 H 
ATOM     41 H41  LIG A   1       0.553  -2.772   1.329  1.00 20.00    +0.030 H 
ATOM     42 H42  LIG A   1       0.116  -1.367   2.305  1.00 20.00    +0.030 H 
ATOM     43 H43  LIG A   1      -0.663  -1.773  -0.632  1.00 20.00    +0.049 H 
ATOM     44 H44  LIG A   1      -1.693  -2.191   0.748  1.00 20.00    +0.049 H 
ATOM     45 H45  LIG A   1      -1.648   0.103   1.458  1.00 20.00    +0.162 HD
ATOM     46 H46  LIG A   1      -1.760  -0.355  -2.161  1.00 20.00    +0.066 H 
ATOM     47 H47  LIG A   1      -3.890   0.116  -3.321  1.00 20.00    +0.063 H 
ATOM     48 H48  LIG A   1      -6.289   0.856  -3.182  1.00 20.00    +0.063 H 
ATOM     49 H49  LIG A   1      -8.189   1.634  -1.809  1.00 20.00    +0.062 H 
ATOM     50 H50  LIG A   1      -7.911   1.898   0.647  1.00 20.00    +0.062 H 
ATOM     51 H51  LIG A   1      -5.737   1.381   1.708  1.00 20.00    +0.065 H 
ATOM     52 H52  LIG A   1       3.727   0.138  -0.009  1.00 20.00    +0.118 HD
ATOM     53 H53  LIG A   1       3.176  -1.327   0.452  1.00 20.00    +0.118 HD
ATOM     54 H54  LIG A   1       1.830   0.499  -1.430  1.00 20.00    +0.045 H 
ATOM     55 H55  LIG A   1       1.253  -1.096  -1.002  1.00 20.00    +0.045 H 
ATOM     56 H56  LIG A   1       1.687   1.190   0.999  1.00 20.00    +0.058 H 
ATOM     57 H57  LIG A   1       0.987  -0.377   1.406  1.00 20.00    +0.058 H 
ATOM     58 H58  LIG A   1      -0.953  -0.801  -0.653  1.00 20.00    +0.059 H 
ATOM     59 H59  LIG A   1      -1.309  -0.631   1.072  1.00 20.00    +0.059 H 
ATOM     60 H60  LIG A   1      -2.445   1.105  -1.186  1.00 20.00    +0.059 H 
ATOM     61 H61  LIG A   1      -2.773   1.375   0.522  1.00 20.00    +0.059 H 
ATOM     62 H62  LIG A   1      -3.769  -0.630   0.632  1.00 20.00    +0.210 HD
ENDROOT
TORSDOF 0
