MODEL 1
REMARK VINA RESULT:   -11.013      0.000      0.000
REMARK INTER + INTRA:         -11.013
REMARK INTER:                 -11.013
REMARK INTRA:                   0.000
REMARK UNBOUND:                 0.000
ROOT
ATOM      1 C1   LIG A   1      18.110  14.144  10.900  1.00 20.00    -0.060 C 
ATOM      2 C2   LIG A   1      18.941  15.377  10.491  1.00 20.00    -0.016 C 
ATOM      3 C3   LIG A   1      20.459  14.984  10.515  1.00 20.00    -0.023 C 
ATOM      4 C4   LIG A   1      21.100  14.867   9.156  1.00 20.00    -0.044 A 
ATOM      5 C5   LIG A   1      20.774  13.818   8.294  1.00 20.00    -0.058 A 
ATOM      6 C6   LIG A   1      21.023  13.944   6.929  1.00 20.00    -0.054 A 
ATOM      7 C7   LIG A   1      21.565  15.134   6.409  1.00 20.00    +0.009 A 
ATOM      8 C8   LIG A   1      22.032  16.113   7.306  1.00 20.00    +0.130 A 
ATOM      9 C9   LIG A   1      21.862  15.939   8.680  1.00 20.00    -0.016 A 
ATOM     10 O10  LIG A   1      22.544  17.283   6.788  1.00 20.00    -0.464 OA
ATOM     11 C11  LIG A   1      22.308  18.469   7.455  1.00 20.00    +0.104 C 
ATOM     12 C12  LIG A   1      21.154  19.166   7.552  1.00 20.00    +0.082 C 
ATOM     13 C13  LIG A   1      21.192  20.499   8.193  1.00 20.00    -0.010 A 
ATOM     14 C14  LIG A   1      21.647  20.646   9.508  1.00 20.00    -0.052 A 
ATOM     15 C15  LIG A   1      21.695  21.908  10.114  1.00 20.00    -0.038 A 
ATOM     16 C16  LIG A   1      21.306  23.065   9.425  1.00 20.00    +0.034 A 
ATOM     17 N17  LIG A   1      21.317  24.280  10.117  1.00 20.00    -0.385 NA
ATOM     18 C18  LIG A   1      21.102  25.533   9.397  1.00 20.00    +0.016 C 
ATOM     19 C19  LIG A   1      21.187  26.728  10.353  1.00 20.00    -0.023 C 
ATOM     20 C20  LIG A   1      19.995  26.840  11.315  1.00 20.00    -0.003 C 
ATOM     21 N21  LIG A   1      19.853  25.730  12.263  1.00 20.00    -0.317 NA
ATOM     22 C22  LIG A   1      20.821  25.740  13.358  1.00 20.00    -0.005 C 
ATOM     23 C23  LIG A   1      20.546  26.786  14.444  1.00 20.00    -0.039 C 
ATOM     24 C24  LIG A   1      19.375  26.470  15.382  1.00 20.00    -0.040 C 
ATOM     25 C25  LIG A   1      18.011  26.384  14.703  1.00 20.00    -0.008 C 
ATOM     26 N26  LIG A   1      16.960  26.297  15.718  1.00 20.00    -0.330 NA
ATOM     27 C27  LIG A   1      20.804  22.905   8.130  1.00 20.00    -0.038 A 
ATOM     28 C28  LIG A   1      20.763  21.644   7.516  1.00 20.00    -0.052 A 
ATOM     29 C29  LIG A   1      19.894  18.675   6.888  1.00 20.00    +0.264 C 
ATOM     30 O30  LIG A   1      19.361  19.345   6.001  1.00 20.00    -0.268 OA
ATOM     31 N31  LIG A   1      19.397  17.447   7.306  1.00 20.00    -0.277 NA
ATOM     32 C32  LIG A   1      18.720  16.630   6.289  1.00 20.00    +0.029 C 
ATOM     33 C33  LIG A   1      19.211  16.672   4.824  1.00 20.00    -0.034 C 
ATOM     34 C34  LIG A   1      20.714  16.617   4.487  1.00 20.00    -0.034 C 
ATOM     35 C35  LIG A   1      21.517  15.358   4.905  1.00 20.00    +0.085 C 
ATOM     36 C36  LIG A   1      22.916  15.360   4.293  1.00 20.00    +0.311 C 
ATOM     37 O37  LIG A   1      23.982  15.169   4.858  1.00 20.00    -0.252 OA
ATOM     38 O38  LIG A   1      22.902  15.521   2.952  1.00 20.00    -0.481 OA
ATOM     39 C39  LIG A   1      19.171  17.256   8.681  1.00 20.00    +0.246 C 
ATOM     40 O40  LIG A   1      19.535  18.064   9.543  1.00 20.00    -0.273 OA
ATOM     41 C41  LIG A   1      18.386  15.992   9.156  1.00 20.00    +0.088 C 
ATOM     42 N42  LIG A   1      16.972  16.408   9.345  1.00 20.00    -0.320 NA
ATOM     43 N43  LIG A   1      20.958  22.827  10.948  1.00 20.00    -0.328 NA
ATOM     44 C44  LIG A   1      20.792  21.870   9.855  1.00 20.00    +0.016 C 
ATOM     45 C45  LIG A   1      19.597  20.928  10.059  1.00 20.00    +0.059 C 
ATOM     46 O46  LIG A   1      19.388  20.081   8.928  1.00 20.00    -0.378 OA
ATOM     47 C47  LIG A   1      20.241  18.939   8.918  1.00 20.00    +0.070 C 
ATOM     48 C48  LIG A   1      19.950  18.104   7.674  1.00 20.00    +0.067 C 
ATOM     49 O49  LIG A   1      20.724  16.911   7.670  1.00 20.00    -0.394 OA
ATOM     50 H50  LIG A   1      17.055  14.400  11.048  1.00 20.00    +0.023 H 
ATOM     51 H51  LIG A   1      18.167  13.358  10.141  1.00 20.00    +0.023 H 
ATOM     52 H52  LIG A   1      18.471  13.730  11.848  1.00 20.00    +0.023 H 
ATOM     53 H53  LIG A   1      18.806  16.116  11.295  1.00 20.00    +0.032 H 
ATOM     54 H54  LIG A   1      20.996  15.746  11.096  1.00 20.00    +0.032 H 
ATOM     55 H55  LIG A   1      20.621  14.049  11.064  1.00 20.00    +0.032 H 
ATOM     56 H56  LIG A   1      20.236  12.946   8.660  1.00 20.00    +0.063 H 
ATOM     57 H57  LIG A   1      20.695  13.147   6.263  1.00 20.00    +0.063 H 
ATOM     58 H58  LIG A   1      22.167  16.723   9.370  1.00 20.00    +0.067 H 
ATOM     59 H59  LIG A   1      23.254  18.841   7.832  1.00 20.00    +0.105 H 
ATOM     60 H60  LIG A   1      21.940  19.775  10.089  1.00 20.00    +0.063 H 
ATOM     61 H61  LIG A   1      22.025  21.976  11.147  1.00 20.00    +0.064 H 
ATOM     62 H62  LIG A   1      22.098  24.320  10.769  1.00 20.00    +0.160 HD
ATOM     63 H63  LIG A   1      21.871  25.650   8.622  1.00 20.00    +0.049 H 
ATOM     64 H64  LIG A   1      20.118  25.537   8.910  1.00 20.00    +0.049 H 
ATOM     65 H65  LIG A   1      21.207  27.642   9.745  1.00 20.00    +0.030 H 
ATOM     66 H66  LIG A   1      22.133  26.707  10.907  1.00 20.00    +0.030 H 
ATOM     67 H67  LIG A   1      19.074  26.877  10.720  1.00 20.00    +0.043 H 
ATOM     68 H68  LIG A   1      20.041  27.799  11.842  1.00 20.00    +0.043 H 
ATOM     69 H69  LIG A   1      19.975  24.858  11.730  1.00 20.00    +0.122 HD
ATOM     70 H70  LIG A   1      20.812  24.748  13.827  1.00 20.00    +0.043 H 
ATOM     71 H71  LIG A   1      21.838  25.876  12.973  1.00 20.00    +0.043 H 
ATOM     72 H72  LIG A   1      20.410  27.783  14.008  1.00 20.00    +0.028 H 
ATOM     73 H73  LIG A   1      21.446  26.858  15.069  1.00 20.00    +0.028 H 
ATOM     74 H74  LIG A   1      19.351  27.257  16.148  1.00 20.00    +0.028 H 
ATOM     75 H75  LIG A   1      19.580  25.531  15.913  1.00 20.00    +0.028 H 
ATOM     76 H76  LIG A   1      17.834  27.264  14.073  1.00 20.00    +0.043 H 
ATOM     77 H77  LIG A   1      17.947  25.492  14.074  1.00 20.00    +0.043 H 
ATOM     78 H78  LIG A   1      16.051  26.260  15.252  1.00 20.00    +0.118 HD
ATOM     79 H79  LIG A   1      16.957  27.146  16.278  1.00 20.00    +0.118 HD
ATOM     80 H80  LIG A   1      20.435  23.751   7.560  1.00 20.00    +0.064 H 
ATOM     81 H81  LIG A   1      20.380  21.578   6.498  1.00 20.00    +0.063 H 
ATOM     82 H82  LIG A   1      18.756  15.582   6.584  1.00 20.00    +0.050 H 
ATOM     83 H83  LIG A   1      17.660  16.914   6.310  1.00 20.00    +0.050 H 
ATOM     84 H84  LIG A   1      18.811  17.580   4.356  1.00 20.00    +0.029 H 
ATOM     85 H85  LIG A   1      18.716  15.847   4.293  1.00 20.00    +0.029 H 
ATOM     86 H86  LIG A   1      20.767  16.693   3.390  1.00 20.00    +0.028 H 
ATOM     87 H87  LIG A   1      21.206  17.531   4.827  1.00 20.00    +0.028 H 
ATOM     88 H88  LIG A   1      21.017  14.493   4.451  1.00 20.00    +0.047 H 
ATOM     89 H89  LIG A   1      23.850  15.479   2.708  1.00 20.00    +0.296 HD
ATOM     90 H90  LIG A   1      18.381  15.202   8.410  1.00 20.00    +0.057 H 
ATOM     91 H91  LIG A   1      16.942  17.087  10.113  1.00 20.00    +0.119 HD
ATOM     92 H92  LIG A   1      16.649  16.926   8.526  1.00 20.00    +0.119 HD
ATOM     93 H93  LIG A   1      20.121  23.405  11.026  1.00 20.00    +0.118 HD
ATOM     94 H94  LIG A   1      21.047  22.332  11.834  1.00 20.00    +0.118 HD
ATOM     95 H95  LIG A   1      20.673  22.415   8.913  1.00 20.00    +0.045 H 
ATOM     96 H96  LIG A   1      21.716  21.291   9.753  1.00 20.00    +0.045 H 
ATOM     97 H97  LIG A   1      18.685  21.526  10.175  1.00 20.00    +0.058 H 
ATOM     98 H98  LIG A   1      19.707  20.329  10.971  1.00 20.00    +0.058 H 
ATOM     99 H99  LIG A   1      21.294  19.237   8.916  1.00 20.00    +0.059 H 
ATOM    100 H100 LIG A   1      20.066  18.335   9.816  1.00 20.00    +0.059 H 
ATOM    101 H101 LIG A   1      20.188  18.675   6.771  1.00 20.00    +0.059 H 
ATOM    102 H102 LIG A   1      18.888  17.841   7.615  1.00 20.00    +0.059 H 
ATOM    103 H103 LIG A   1      20.370  16.333   8.368  1.00 20.00    +0.210 HD
ENDROOT
TORSDOF 0
                                                                                                          
ENDMDL
MODEL 2
REMARK VINA RESULT:   -10.793      4.448      7.368
REMARK INTER + INTRA:         -10.793
REMARK INTER:                 -10.793
REMARK INTRA:                   0.000
REMARK UNBOUND:                 0.000
ROOT
ATOM      1 C1   LIG A   1      19.949  20.828   7.236  1.00 20.00    -0.060 C 
ATOM      2 C2   LIG A   1      19.965  21.330   8.694  1.00 20.00    -0.016 C 
ATOM      3 C3   LIG A   1      19.825  20.094   9.648  1.00 20.00    -0.023 C 
ATOM      4 C4   LIG A   1      21.080  19.739  10.405  1.00 20.00    -0.044 A 
ATOM      5 C5   LIG A   1      22.185  19.193   9.750  1.00 20.00    -0.058 A 
ATOM      6 C6   LIG A   1      23.445  19.268  10.341  1.00 20.00    -0.054 A 
ATOM      7 C7   LIG A   1      23.615  19.924  11.575  1.00 20.00    +0.009 A 
ATOM      8 C8   LIG A   1      22.472  20.326  12.291  1.00 20.00    +0.130 A 
ATOM      9 C9   LIG A   1      21.205  20.163  11.732  1.00 20.00    -0.016 A 
ATOM     10 O10  LIG A   1      22.650  20.984  13.489  1.00 20.00    -0.464 OA
ATOM     11 C11  LIG A   1      21.778  21.998  13.830  1.00 20.00    +0.104 C 
ATOM     12 C12  LIG A   1      21.685  23.241  13.307  1.00 20.00    +0.082 C 
ATOM     13 C13  LIG A   1      20.768  24.208  13.953  1.00 20.00    -0.010 A 
ATOM     14 C14  LIG A   1      19.405  23.921  14.081  1.00 20.00    -0.052 A 
ATOM     15 C15  LIG A   1      18.537  24.829  14.703  1.00 20.00    -0.038 A 
ATOM     16 C16  LIG A   1      19.002  26.042  15.229  1.00 20.00    +0.034 A 
ATOM     17 N17  LIG A   1      18.067  26.927  15.774  1.00 20.00    -0.385 NA
ATOM     18 C18  LIG A   1      18.518  28.112  16.499  1.00 20.00    +0.016 C 
ATOM     19 C19  LIG A   1      17.321  28.911  17.028  1.00 20.00    -0.023 C 
ATOM     20 C20  LIG A   1      16.525  29.635  15.932  1.00 20.00    -0.003 C 
ATOM     21 N21  LIG A   1      15.869  28.758  14.956  1.00 20.00    -0.317 NA
ATOM     22 C22  LIG A   1      14.680  28.073  15.459  1.00 20.00    -0.005 C 
ATOM     23 C23  LIG A   1      13.439  28.962  15.589  1.00 20.00    -0.039 C 
ATOM     24 C24  LIG A   1      12.756  29.338  14.268  1.00 20.00    -0.040 C 
ATOM     25 C25  LIG A   1      13.612  30.166  13.314  1.00 20.00    -0.008 C 
ATOM     26 N26  LIG A   1      12.790  30.642  12.200  1.00 20.00    -0.330 NA
ATOM     27 C27  LIG A   1      20.356  26.343  15.052  1.00 20.00    -0.038 A 
ATOM     28 C28  LIG A   1      21.231  25.434  14.439  1.00 20.00    -0.052 A 
ATOM     29 C29  LIG A   1      22.601  23.685  12.197  1.00 20.00    +0.264 C 
ATOM     30 O30  LIG A   1      23.383  24.621  12.377  1.00 20.00    -0.268 OA
ATOM     31 N31  LIG A   1      22.531  22.981  11.001  1.00 20.00    -0.277 NA
ATOM     32 C32  LIG A   1      23.782  22.847  10.242  1.00 20.00    +0.029 C 
ATOM     33 C33  LIG A   1      25.125  22.718  10.998  1.00 20.00    -0.034 C 
ATOM     34 C34  LIG A   1      25.263  21.791  12.221  1.00 20.00    -0.034 C 
ATOM     35 C35  LIG A   1      25.027  20.272  12.024  1.00 20.00    +0.085 C 
ATOM     36 C36  LIG A   1      25.433  19.478  13.264  1.00 20.00    +0.311 C 
ATOM     37 O37  LIG A   1      24.787  18.625  13.853  1.00 20.00    -0.252 OA
ATOM     38 O38  LIG A   1      26.696  19.740  13.664  1.00 20.00    -0.481 OA
ATOM     39 C39  LIG A   1      21.274  22.839  10.387  1.00 20.00    +0.246 C 
ATOM     40 O40  LIG A   1      20.215  23.173  10.932  1.00 20.00    -0.273 OA
ATOM     41 C41  LIG A   1      21.194  22.279   8.931  1.00 20.00    +0.088 C 
ATOM     42 N42  LIG A   1      21.109  23.450   8.021  1.00 20.00    -0.320 NA
ATOM     43 N43  LIG A   1      17.628  25.923  14.458  1.00 20.00    -0.328 NA
ATOM     44 C44  LIG A   1      18.916  25.373  14.036  1.00 20.00    +0.016 C 
ATOM     45 C45  LIG A   1      19.083  25.341  12.510  1.00 20.00    +0.059 C 
ATOM     46 O46  LIG A   1      20.389  24.908  12.127  1.00 20.00    -0.378 OA
ATOM     47 C47  LIG A   1      20.535  23.490  12.138  1.00 20.00    +0.070 C 
ATOM     48 C48  LIG A   1      21.958  23.127  11.724  1.00 20.00    +0.067 C 
ATOM     49 O49  LIG A   1      22.120  21.717  11.642  1.00 20.00    -0.394 OA
ATOM     50 H50  LIG A   1      19.890  21.658   6.524  1.00 20.00    +0.023 H 
ATOM     51 H51  LIG A   1      20.846  20.245   7.008  1.00 20.00    +0.023 H 
ATOM     52 H52  LIG A   1      19.075  20.192   7.054  1.00 20.00    +0.023 H 
ATOM     53 H53  LIG A   1      19.043  21.918   8.823  1.00 20.00    +0.032 H 
ATOM     54 H54  LIG A   1      19.026  20.312  10.369  1.00 20.00    +0.032 H 
ATOM     55 H55  LIG A   1      19.477  19.207   9.104  1.00 20.00    +0.032 H 
ATOM     56 H56  LIG A   1      22.093  18.800   8.739  1.00 20.00    +0.063 H 
ATOM     57 H57  LIG A   1      24.306  18.904   9.783  1.00 20.00    +0.063 H 
ATOM     58 H58  LIG A   1      20.326  20.530  12.258  1.00 20.00    +0.067 H 
ATOM     59 H59  LIG A   1      21.206  21.679  14.695  1.00 20.00    +0.105 H 
ATOM     60 H60  LIG A   1      18.994  23.003  13.669  1.00 20.00    +0.063 H 
ATOM     61 H61  LIG A   1      17.479  24.584  14.754  1.00 20.00    +0.064 H 
ATOM     62 H62  LIG A   1      17.324  26.421  16.253  1.00 20.00    +0.160 HD
ATOM     63 H63  LIG A   1      19.139  27.808  17.352  1.00 20.00    +0.049 H 
ATOM     64 H64  LIG A   1      19.118  28.760  15.848  1.00 20.00    +0.049 H 
ATOM     65 H65  LIG A   1      17.706  29.676  17.715  1.00 20.00    +0.030 H 
ATOM     66 H66  LIG A   1      16.665  28.266  17.624  1.00 20.00    +0.030 H 
ATOM     67 H67  LIG A   1      17.214  30.281  15.375  1.00 20.00    +0.043 H 
ATOM     68 H68  LIG A   1      15.800  30.312  16.396  1.00 20.00    +0.043 H 
ATOM     69 H69  LIG A   1      16.559  28.048  14.675  1.00 20.00    +0.122 HD
ATOM     70 H70  LIG A   1      14.445  27.253  14.767  1.00 20.00    +0.043 H 
ATOM     71 H71  LIG A   1      14.888  27.597  16.423  1.00 20.00    +0.043 H 
ATOM     72 H72  LIG A   1      13.660  29.870  16.161  1.00 20.00    +0.028 H 
ATOM     73 H73  LIG A   1      12.699  28.412  16.185  1.00 20.00    +0.028 H 
ATOM     74 H74  LIG A   1      11.846  29.900  14.521  1.00 20.00    +0.028 H 
ATOM     75 H75  LIG A   1      12.420  28.424  13.761  1.00 20.00    +0.028 H 
ATOM     76 H76  LIG A   1      14.053  31.025  13.833  1.00 20.00    +0.043 H 
ATOM     77 H77  LIG A   1      14.423  29.562  12.898  1.00 20.00    +0.043 H 
ATOM     78 H78  LIG A   1      13.369  31.210  11.579  1.00 20.00    +0.118 HD
ATOM     79 H79  LIG A   1      12.062  31.260  12.555  1.00 20.00    +0.118 HD
ATOM     80 H80  LIG A   1      20.771  27.289  15.387  1.00 20.00    +0.064 H 
ATOM     81 H81  LIG A   1      22.279  25.711  14.343  1.00 20.00    +0.063 H 
ATOM     82 H82  LIG A   1      23.721  21.972   9.596  1.00 20.00    +0.050 H 
ATOM     83 H83  LIG A   1      23.841  23.715   9.572  1.00 20.00    +0.050 H 
ATOM     84 H84  LIG A   1      25.432  23.721  11.319  1.00 20.00    +0.029 H 
ATOM     85 H85  LIG A   1      25.884  22.421  10.262  1.00 20.00    +0.029 H 
ATOM     86 H86  LIG A   1      26.299  21.922  12.567  1.00 20.00    +0.028 H 
ATOM     87 H87  LIG A   1      24.669  22.179  13.052  1.00 20.00    +0.028 H 
ATOM     88 H88  LIG A   1      25.721  19.938  11.241  1.00 20.00    +0.047 H 
ATOM     89 H89  LIG A   1      26.815  19.151  14.439  1.00 20.00    +0.296 HD
ATOM     90 H90  LIG A   1      22.089  21.729   8.649  1.00 20.00    +0.057 H 
ATOM     91 H91  LIG A   1      20.222  23.930   8.207  1.00 20.00    +0.119 HD
ATOM     92 H92  LIG A   1      21.830  24.131   8.262  1.00 20.00    +0.119 HD
ATOM     93 H93  LIG A   1      17.537  26.881  14.119  1.00 20.00    +0.118 HD
ATOM     94 H94  LIG A   1      16.868  25.396  14.032  1.00 20.00    +0.118 HD
ATOM     95 H95  LIG A   1      19.724  25.964  14.481  1.00 20.00    +0.045 H 
ATOM     96 H96  LIG A   1      19.018  24.365  14.449  1.00 20.00    +0.045 H 
ATOM     97 H97  LIG A   1      18.962  26.357  12.114  1.00 20.00    +0.058 H 
ATOM     98 H98  LIG A   1      18.317  24.716  12.034  1.00 20.00    +0.058 H 
ATOM     99 H99  LIG A   1      20.332  23.083  13.133  1.00 20.00    +0.059 H 
ATOM    100 H100 LIG A   1      19.821  23.037  11.439  1.00 20.00    +0.059 H 
ATOM    101 H101 LIG A   1      22.675  23.517  12.454  1.00 20.00    +0.059 H 
ATOM    102 H102 LIG A   1      22.214  23.573  10.757  1.00 20.00    +0.059 H 
ATOM    103 H103 LIG A   1      21.619  21.412  10.866  1.00 20.00    +0.210 HD
ENDROOT
TORSDOF 0
                                                                                                          
ENDMDL
MODEL 3
REMARK VINA RESULT:   -10.730      3.811      9.712
REMARK INTER + INTRA:         -10.730
REMARK INTER:                 -10.730
REMARK INTRA:                   0.000
REMARK UNBOUND:                 0.000
ROOT
ATOM      1 C1   LIG A   1      21.571  22.604   6.711  1.00 20.00    -0.060 C 
ATOM      2 C2   LIG A   1      21.315  21.109   6.993  1.00 20.00    -0.016 C 
ATOM      3 C3   LIG A   1      22.672  20.337   6.854  1.00 20.00    -0.023 C 
ATOM      4 C4   LIG A   1      23.255  19.851   8.157  1.00 20.00    -0.044 A 
ATOM      5 C5   LIG A   1      23.784  20.747   9.088  1.00 20.00    -0.058 A 
ATOM      6 C6   LIG A   1      23.917  20.359  10.420  1.00 20.00    -0.054 A 
ATOM      7 C7   LIG A   1      23.488  19.086  10.839  1.00 20.00    +0.009 A 
ATOM      8 C8   LIG A   1      23.108  18.146   9.863  1.00 20.00    +0.130 A 
ATOM      9 C9   LIG A   1      23.064  18.513   8.518  1.00 20.00    -0.016 A 
ATOM     10 O10  LIG A   1      22.671  16.908  10.285  1.00 20.00    -0.464 OA
ATOM     11 C11  LIG A   1      21.652  16.287   9.590  1.00 20.00    +0.104 C 
ATOM     12 C12  LIG A   1      20.338  16.601   9.563  1.00 20.00    +0.082 C 
ATOM     13 C13  LIG A   1      19.411  15.682   8.863  1.00 20.00    -0.010 A 
ATOM     14 C14  LIG A   1      19.593  15.381   7.509  1.00 20.00    -0.052 A 
ATOM     15 C15  LIG A   1      18.724  14.502   6.848  1.00 20.00    -0.038 A 
ATOM     16 C16  LIG A   1      17.659  13.885   7.517  1.00 20.00    +0.034 A 
ATOM     17 N17  LIG A   1      16.795  13.074   6.775  1.00 20.00    -0.385 NA
ATOM     18 C18  LIG A   1      15.788  12.264   7.456  1.00 20.00    +0.016 C 
ATOM     19 C19  LIG A   1      14.982  11.440   6.445  1.00 20.00    -0.023 C 
ATOM     20 C20  LIG A   1      14.023  12.276   5.586  1.00 20.00    -0.003 C 
ATOM     21 N21  LIG A   1      14.668  13.253   4.702  1.00 20.00    -0.317 NA
ATOM     22 C22  LIG A   1      15.317  12.673   3.529  1.00 20.00    -0.005 C 
ATOM     23 C23  LIG A   1      14.355  12.217   2.427  1.00 20.00    -0.039 C 
ATOM     24 C24  LIG A   1      13.710  13.342   1.608  1.00 20.00    -0.040 C 
ATOM     25 C25  LIG A   1      12.817  14.289   2.405  1.00 20.00    -0.008 C 
ATOM     26 N26  LIG A   1      12.096  15.175   1.490  1.00 20.00    -0.330 NA
ATOM     27 C27  LIG A   1      17.454  14.230   8.856  1.00 20.00    -0.038 A 
ATOM     28 C28  LIG A   1      18.326  15.101   9.526  1.00 20.00    -0.052 A 
ATOM     29 C29  LIG A   1      19.802  17.765  10.354  1.00 20.00    +0.264 C 
ATOM     30 O30  LIG A   1      18.981  17.577  11.254  1.00 20.00    -0.268 OA
ATOM     31 N31  LIG A   1      20.294  19.025  10.034  1.00 20.00    -0.277 NA
ATOM     32 C32  LIG A   1      20.414  19.985  11.139  1.00 20.00    +0.029 C 
ATOM     33 C33  LIG A   1      20.782  19.481  12.554  1.00 20.00    -0.034 C 
ATOM     34 C34  LIG A   1      21.904  18.445  12.762  1.00 20.00    -0.034 C 
ATOM     35 C35  LIG A   1      23.344  18.822  12.330  1.00 20.00    +0.085 C 
ATOM     36 C36  LIG A   1      24.361  17.793  12.818  1.00 20.00    +0.311 C 
ATOM     37 O37  LIG A   1      25.238  17.240  12.173  1.00 20.00    -0.252 OA
ATOM     38 O38  LIG A   1      24.281  17.566  14.147  1.00 20.00    -0.481 OA
ATOM     39 C39  LIG A   1      20.222  19.444   8.693  1.00 20.00    +0.246 C 
ATOM     40 O40  LIG A   1      19.889  18.694   7.768  1.00 20.00    -0.273 OA
ATOM     41 C41  LIG A   1      20.530  20.935   8.343  1.00 20.00    +0.088 C 
ATOM     42 N42  LIG A   1      19.224  21.638   8.259  1.00 20.00    -0.320 NA
ATOM     43 N43  LIG A   1      17.529  14.436   6.041  1.00 20.00    -0.328 NA
ATOM     44 C44  LIG A   1      18.115  15.134   7.185  1.00 20.00    +0.016 C 
ATOM     45 C45  LIG A   1      17.914  16.655   7.126  1.00 20.00    +0.059 C 
ATOM     46 O46  LIG A   1      18.393  17.300   8.306  1.00 20.00    -0.378 OA
ATOM     47 C47  LIG A   1      19.801  17.522   8.292  1.00 20.00    +0.070 C 
ATOM     48 C48  LIG A   1      20.217  18.206   9.591  1.00 20.00    +0.067 C 
ATOM     49 O49  LIG A   1      21.604  18.519   9.579  1.00 20.00    -0.394 OA
ATOM     50 H50  LIG A   1      20.635  23.168   6.644  1.00 20.00    +0.023 H 
ATOM     51 H51  LIG A   1      22.186  23.056   7.495  1.00 20.00    +0.023 H 
ATOM     52 H52  LIG A   1      22.088  22.735   5.754  1.00 20.00    +0.023 H 
ATOM     53 H53  LIG A   1      20.676  20.750   6.172  1.00 20.00    +0.032 H 
ATOM     54 H54  LIG A   1      22.504  19.474   6.197  1.00 20.00    +0.032 H 
ATOM     55 H55  LIG A   1      23.425  20.942   6.334  1.00 20.00    +0.032 H 
ATOM     56 H56  LIG A   1      23.998  21.777   8.808  1.00 20.00    +0.063 H 
ATOM     57 H57  LIG A   1      24.260  21.095  11.145  1.00 20.00    +0.063 H 
ATOM     58 H58  LIG A   1      22.711  17.806   7.772  1.00 20.00    +0.067 H 
ATOM     59 H59  LIG A   1      22.055  15.399   9.116  1.00 20.00    +0.105 H 
ATOM     60 H60  LIG A   1      20.392  15.852   6.943  1.00 20.00    +0.063 H 
ATOM     61 H61  LIG A   1      18.879  14.319   5.787  1.00 20.00    +0.064 H 
ATOM     62 H62  LIG A   1      17.304  12.562   6.056  1.00 20.00    +0.160 HD
ATOM     63 H63  LIG A   1      16.280  11.575   8.155  1.00 20.00    +0.049 H 
ATOM     64 H64  LIG A   1      15.098  12.900   8.025  1.00 20.00    +0.049 H 
ATOM     65 H65  LIG A   1      14.376  10.718   7.009  1.00 20.00    +0.030 H 
ATOM     66 H66  LIG A   1      15.655  10.848   5.813  1.00 20.00    +0.030 H 
ATOM     67 H67  LIG A   1      13.358  12.835   6.256  1.00 20.00    +0.043 H 
ATOM     68 H68  LIG A   1      13.368  11.608   5.016  1.00 20.00    +0.043 H 
ATOM     69 H69  LIG A   1      15.381  13.741   5.260  1.00 20.00    +0.122 HD
ATOM     70 H70  LIG A   1      15.990  13.430   3.106  1.00 20.00    +0.043 H 
ATOM     71 H71  LIG A   1      15.960  11.834   3.818  1.00 20.00    +0.043 H 
ATOM     72 H72  LIG A   1      13.575  11.561   2.829  1.00 20.00    +0.028 H 
ATOM     73 H73  LIG A   1      14.927  11.598   1.723  1.00 20.00    +0.028 H 
ATOM     74 H74  LIG A   1      13.118  12.868   0.813  1.00 20.00    +0.028 H 
ATOM     75 H75  LIG A   1      14.497  13.918   1.102  1.00 20.00    +0.028 H 
ATOM     76 H76  LIG A   1      12.096  13.727   3.009  1.00 20.00    +0.043 H 
ATOM     77 H77  LIG A   1      13.416  14.913   3.075  1.00 20.00    +0.043 H 
ATOM     78 H78  LIG A   1      11.489  15.790   2.033  1.00 20.00    +0.118 HD
ATOM     79 H79  LIG A   1      11.483  14.622   0.895  1.00 20.00    +0.118 HD
ATOM     80 H80  LIG A   1      16.616  13.831   9.419  1.00 20.00    +0.064 H 
ATOM     81 H81  LIG A   1      18.131  15.321  10.574  1.00 20.00    +0.063 H 
ATOM     82 H82  LIG A   1      21.163  20.735  10.889  1.00 20.00    +0.050 H 
ATOM     83 H83  LIG A   1      19.457  20.521  11.198  1.00 20.00    +0.050 H 
ATOM     84 H84  LIG A   1      19.875  19.069  13.015  1.00 20.00    +0.029 H 
ATOM     85 H85  LIG A   1      21.022  20.364  13.161  1.00 20.00    +0.029 H 
ATOM     86 H86  LIG A   1      21.923  18.253  13.845  1.00 20.00    +0.028 H 
ATOM     87 H87  LIG A   1      21.605  17.482  12.341  1.00 20.00    +0.028 H 
ATOM     88 H88  LIG A   1      23.607  19.746  12.863  1.00 20.00    +0.047 H 
ATOM     89 H89  LIG A   1      24.995  16.915  14.310  1.00 20.00    +0.296 HD
ATOM     90 H90  LIG A   1      21.104  21.434   9.120  1.00 20.00    +0.057 H 
ATOM     91 H91  LIG A   1      18.704  21.245   7.468  1.00 20.00    +0.119 HD
ATOM     92 H92  LIG A   1      18.658  21.418   9.079  1.00 20.00    +0.119 HD
ATOM     93 H93  LIG A   1      16.524  14.612   6.011  1.00 20.00    +0.118 HD
ATOM     94 H94  LIG A   1      17.910  14.808   5.173  1.00 20.00    +0.118 HD
ATOM     95 H95  LIG A   1      17.678  14.742   8.110  1.00 20.00    +0.045 H 
ATOM     96 H96  LIG A   1      19.182  14.895   7.231  1.00 20.00    +0.045 H 
ATOM     97 H97  LIG A   1      16.841  16.873   7.064  1.00 20.00    +0.058 H 
ATOM     98 H98  LIG A   1      18.383  17.089   6.234  1.00 20.00    +0.058 H 
ATOM     99 H99  LIG A   1      20.345  16.577   8.190  1.00 20.00    +0.059 H 
ATOM    100 H100 LIG A   1      20.071  18.156   7.439  1.00 20.00    +0.059 H 
ATOM    101 H101 LIG A   1      20.016  17.550  10.445  1.00 20.00    +0.059 H 
ATOM    102 H102 LIG A   1      19.644  19.126   9.753  1.00 20.00    +0.059 H 
ATOM    103 H103 LIG A   1      21.733  19.241   8.941  1.00 20.00    +0.210 HD
ENDROOT
TORSDOF 0
                                                                                                          
ENDMDL
MODEL 4
REMARK VINA RESULT:   -10.056      3.736      9.126
REMARK INTER + INTRA:         -10.056
REMARK INTER:                 -10.056
REMARK INTRA:                   0.000
REMARK UNBOUND:                 0.000
ROOT
ATOM      1 C1   LIG A   1      20.325  20.223  12.403  1.00 20.00    -0.060 C 
ATOM      2 C2   LIG A   1      20.080  19.812  10.938  1.00 20.00    -0.016 C 
ATOM      3 C3   LIG A   1      19.863  21.110  10.086  1.00 20.00    -0.023 C 
ATOM      4 C4   LIG A   1      21.000  21.449   9.155  1.00 20.00    -0.044 A 
ATOM      5 C5   LIG A   1      22.225  21.899   9.651  1.00 20.00    -0.058 A 
ATOM      6 C6   LIG A   1      23.368  21.798   8.860  1.00 20.00    -0.054 A 
ATOM      7 C7   LIG A   1      23.302  21.212   7.582  1.00 20.00    +0.009 A 
ATOM      8 C8   LIG A   1      22.038  20.912   7.040  1.00 20.00    +0.130 A 
ATOM      9 C9   LIG A   1      20.887  21.102   7.805  1.00 20.00    -0.016 A 
ATOM     10 O10  LIG A   1      21.985  20.321   5.796  1.00 20.00    -0.464 OA
ATOM     11 C11  LIG A   1      21.012  19.373   5.548  1.00 20.00    +0.104 C 
ATOM     12 C12  LIG A   1      20.931  18.107   6.012  1.00 20.00    +0.082 C 
ATOM     13 C13  LIG A   1      19.869  17.228   5.473  1.00 20.00    -0.010 A 
ATOM     14 C14  LIG A   1      18.521  17.588   5.582  1.00 20.00    -0.052 A 
ATOM     15 C15  LIG A   1      17.515  16.764   5.062  1.00 20.00    -0.038 A 
ATOM     16 C16  LIG A   1      17.818  15.565   4.404  1.00 20.00    +0.034 A 
ATOM     17 N17  LIG A   1      16.758  14.762   3.972  1.00 20.00    -0.385 NA
ATOM     18 C18  LIG A   1      17.018  13.603   3.121  1.00 20.00    +0.016 C 
ATOM     19 C19  LIG A   1      15.708  12.898   2.752  1.00 20.00    -0.023 C 
ATOM     20 C20  LIG A   1      15.056  12.148   3.922  1.00 20.00    -0.003 C 
ATOM     21 N21  LIG A   1      14.616  12.993   5.037  1.00 20.00    -0.317 NA
ATOM     22 C22  LIG A   1      13.404  13.766   4.770  1.00 20.00    -0.005 C 
ATOM     23 C23  LIG A   1      12.108  12.949   4.796  1.00 20.00    -0.039 C 
ATOM     24 C24  LIG A   1      11.623  12.525   6.188  1.00 20.00    -0.040 C 
ATOM     25 C25  LIG A   1      12.570  11.599   6.946  1.00 20.00    -0.008 C 
ATOM     26 N26  LIG A   1      11.909  11.096   8.151  1.00 20.00    -0.330 NA
ATOM     27 C27  LIG A   1      19.163  15.187   4.343  1.00 20.00    -0.038 A 
ATOM     28 C28  LIG A   1      20.175  16.013   4.854  1.00 20.00    -0.052 A 
ATOM     29 C29  LIG A   1      21.984  17.551   6.934  1.00 20.00    +0.264 C 
ATOM     30 O30  LIG A   1      22.672  16.591   6.580  1.00 20.00    -0.268 OA
ATOM     31 N31  LIG A   1      22.147  18.182   8.161  1.00 20.00    -0.277 NA
ATOM     32 C32  LIG A   1      23.508  18.208   8.713  1.00 20.00    +0.029 C 
ATOM     33 C33  LIG A   1      24.719  18.317   7.758  1.00 20.00    -0.034 C 
ATOM     34 C34  LIG A   1      24.715  19.310   6.579  1.00 20.00    -0.034 C 
ATOM     35 C35  LIG A   1      24.602  20.824   6.893  1.00 20.00    +0.085 C 
ATOM     36 C36  LIG A   1      24.851  21.672   5.647  1.00 20.00    +0.311 C 
ATOM     37 O37  LIG A   1      24.171  22.591   5.217  1.00 20.00    -0.252 OA
ATOM     38 O38  LIG A   1      26.017  21.374   5.035  1.00 20.00    -0.481 OA
ATOM     39 C39  LIG A   1      21.013  18.347   8.977  1.00 20.00    +0.246 C 
ATOM     40 O40  LIG A   1      19.863  18.100   8.594  1.00 20.00    -0.273 OA
ATOM     41 C41  LIG A   1      21.198  18.820  10.454  1.00 20.00    +0.088 C 
ATOM     42 N42  LIG A   1      21.191  17.601  11.303  1.00 20.00    -0.320 NA
ATOM     43 N43  LIG A   1      16.593  15.703   5.393  1.00 20.00    -0.328 NA
ATOM     44 C44  LIG A   1      17.962  16.162   5.629  1.00 20.00    +0.016 C 
ATOM     45 C45  LIG A   1      18.371  16.092   7.108  1.00 20.00    +0.059 C 
ATOM     46 O46  LIG A   1      19.744  16.435   7.296  1.00 20.00    -0.378 OA
ATOM     47 C47  LIG A   1      19.969  17.843   7.337  1.00 20.00    +0.070 C 
ATOM     48 C48  LIG A   1      21.458  18.109   7.534  1.00 20.00    +0.067 C 
ATOM     49 O49  LIG A   1      21.713  19.503   7.663  1.00 20.00    -0.394 OA
ATOM     50 H50  LIG A   1      20.332  19.355  13.070  1.00 20.00    +0.023 H 
ATOM     51 H51  LIG A   1      21.280  20.746  12.514  1.00 20.00    +0.023 H 
ATOM     52 H52  LIG A   1      19.529  20.888  12.758  1.00 20.00    +0.023 H 
ATOM     53 H53  LIG A   1      19.117  19.278  10.929  1.00 20.00    +0.032 H 
ATOM     54 H54  LIG A   1      18.948  20.976   9.493  1.00 20.00    +0.032 H 
ATOM     55 H55  LIG A   1      19.658  21.978  10.725  1.00 20.00    +0.032 H 
ATOM     56 H56  LIG A   1      22.318  22.233  10.683  1.00 20.00    +0.063 H 
ATOM     57 H57  LIG A   1      24.326  22.084   9.290  1.00 20.00    +0.063 H 
ATOM     58 H58  LIG A   1      19.917  20.811   7.410  1.00 20.00    +0.067 H 
ATOM     59 H59  LIG A   1      20.329  19.773   4.805  1.00 20.00    +0.105 H 
ATOM     60 H60  LIG A   1      18.235  18.498   6.103  1.00 20.00    +0.063 H 
ATOM     61 H61  LIG A   1      16.478  17.063   5.196  1.00 20.00    +0.064 H 
ATOM     62 H62  LIG A   1      15.979  15.332   3.647  1.00 20.00    +0.160 HD
ATOM     63 H63  LIG A   1      17.513  13.928   2.197  1.00 20.00    +0.049 H 
ATOM     64 H64  LIG A   1      17.675  12.888   3.631  1.00 20.00    +0.049 H 
ATOM     65 H65  LIG A   1      15.934  12.159   1.972  1.00 20.00    +0.030 H 
ATOM     66 H66  LIG A   1      15.005  13.610   2.305  1.00 20.00    +0.030 H 
ATOM     67 H67  LIG A   1      15.785  11.435   4.325  1.00 20.00    +0.043 H 
ATOM     68 H68  LIG A   1      14.228  11.537   3.547  1.00 20.00    +0.043 H 
ATOM     69 H69  LIG A   1      15.382  13.650   5.240  1.00 20.00    +0.122 HD
ATOM     70 H70  LIG A   1      13.330  14.552   5.533  1.00 20.00    +0.043 H 
ATOM     71 H71  LIG A   1      13.483  14.290   3.811  1.00 20.00    +0.043 H 
ATOM     72 H72  LIG A   1      12.182  12.068   4.148  1.00 20.00    +0.028 H 
ATOM     73 H73  LIG A   1      11.316  13.570   4.358  1.00 20.00    +0.028 H 
ATOM     74 H74  LIG A   1      10.653  12.025   6.056  1.00 20.00    +0.028 H 
ATOM     75 H75  LIG A   1      11.426  13.422   6.790  1.00 20.00    +0.028 H 
ATOM     76 H76  LIG A   1      12.872  10.753   6.318  1.00 20.00    +0.043 H 
ATOM     77 H77  LIG A   1      13.471  12.136   7.256  1.00 20.00    +0.043 H 
ATOM     78 H78  LIG A   1      12.545  10.463   8.639  1.00 20.00    +0.118 HD
ATOM     79 H79  LIG A   1      11.099  10.538   7.886  1.00 20.00    +0.118 HD
ATOM     80 H80  LIG A   1      19.464  14.245   3.896  1.00 20.00    +0.064 H 
ATOM     81 H81  LIG A   1      21.208  15.680   4.763  1.00 20.00    +0.063 H 
ATOM     82 H82  LIG A   1      23.602  19.043   9.406  1.00 20.00    +0.050 H 
ATOM     83 H83  LIG A   1      23.622  17.299   9.318  1.00 20.00    +0.050 H 
ATOM     84 H84  LIG A   1      24.912  17.322   7.338  1.00 20.00    +0.029 H 
ATOM     85 H85  LIG A   1      25.601  18.531   8.376  1.00 20.00    +0.029 H 
ATOM     86 H86  LIG A   1      25.673  19.150   6.064  1.00 20.00    +0.028 H 
ATOM     87 H87  LIG A   1      23.975  19.004   5.836  1.00 20.00    +0.028 H 
ATOM     88 H88  LIG A   1      25.430  21.075   7.569  1.00 20.00    +0.047 H 
ATOM     89 H89  LIG A   1      26.045  22.002   4.283  1.00 20.00    +0.296 HD
ATOM     90 H90  LIG A   1      22.157  19.307  10.616  1.00 20.00    +0.057 H 
ATOM     91 H91  LIG A   1      20.259  17.177  11.238  1.00 20.00    +0.119 HD
ATOM     92 H92  LIG A   1      21.823  16.901  10.913  1.00 20.00    +0.119 HD
ATOM     93 H93  LIG A   1      16.502  14.731   5.691  1.00 20.00    +0.118 HD
ATOM     94 H94  LIG A   1      15.942  16.239   5.964  1.00 20.00    +0.118 HD
ATOM     95 H95  LIG A   1      18.653  15.561   5.029  1.00 20.00    +0.045 H 
ATOM     96 H96  LIG A   1      18.055  17.188   5.259  1.00 20.00    +0.045 H 
ATOM     97 H97  LIG A   1      18.255  15.061   7.463  1.00 20.00    +0.058 H 
ATOM     98 H98  LIG A   1      17.728  16.723   7.734  1.00 20.00    +0.058 H 
ATOM     99 H99  LIG A   1      19.634  18.320   6.411  1.00 20.00    +0.059 H 
ATOM    100 H100 LIG A   1      19.403  18.287   8.165  1.00 20.00    +0.059 H 
ATOM    101 H101 LIG A   1      22.027  17.731   6.677  1.00 20.00    +0.059 H 
ATOM    102 H102 LIG A   1      21.838  17.592   8.422  1.00 20.00    +0.059 H 
ATOM    103 H103 LIG A   1      21.360  19.783   8.525  1.00 20.00    +0.210 HD
ENDROOT
TORSDOF 0
                                                                                                          
ENDMDL
MODEL 5
REMARK VINA RESULT:   -10.048      3.535      6.280
REMARK INTER + INTRA:         -10.048
REMARK INTER:                 -10.048
REMARK INTRA:                   0.000
REMARK UNBOUND:                 0.000
ROOT
ATOM      1 C1   LIG A   1      21.567  21.336   5.604  1.00 20.00    -0.060 C 
ATOM      2 C2   LIG A   1      21.087  21.578   7.050  1.00 20.00    -0.016 C 
ATOM      3 C3   LIG A   1      19.949  20.550   7.375  1.00 20.00    -0.023 C 
ATOM      4 C4   LIG A   1      20.341  19.461   8.340  1.00 20.00    -0.044 A 
ATOM      5 C5   LIG A   1      21.233  18.455   7.966  1.00 20.00    -0.058 A 
ATOM      6 C6   LIG A   1      21.907  17.730   8.948  1.00 20.00    -0.054 A 
ATOM      7 C7   LIG A   1      21.723  18.032  10.310  1.00 20.00    +0.009 A 
ATOM      8 C8   LIG A   1      20.706  18.936  10.671  1.00 20.00    +0.130 A 
ATOM      9 C9   LIG A   1      19.971  19.591   9.683  1.00 20.00    -0.016 A 
ATOM     10 O10  LIG A   1      20.546  19.239  12.006  1.00 20.00    -0.464 OA
ATOM     11 C11  LIG A   1      20.194  20.526  12.361  1.00 20.00    +0.104 C 
ATOM     12 C12  LIG A   1      20.951  21.645  12.328  1.00 20.00    +0.082 C 
ATOM     13 C13  LIG A   1      20.394  22.886  12.914  1.00 20.00    -0.010 A 
ATOM     14 C14  LIG A   1      19.191  23.421  12.440  1.00 20.00    -0.052 A 
ATOM     15 C15  LIG A   1      18.656  24.588  13.000  1.00 20.00    -0.038 A 
ATOM     16 C16  LIG A   1      19.293  25.250  14.059  1.00 20.00    +0.034 A 
ATOM     17 N17  LIG A   1      18.735  26.446  14.521  1.00 20.00    -0.385 NA
ATOM     18 C18  LIG A   1      19.250  27.072  15.736  1.00 20.00    +0.016 C 
ATOM     19 C19  LIG A   1      18.468  28.350  16.060  1.00 20.00    -0.023 C 
ATOM     20 C20  LIG A   1      18.751  29.512  15.097  1.00 20.00    -0.003 C 
ATOM     21 N21  LIG A   1      18.348  29.282  13.706  1.00 20.00    -0.317 NA
ATOM     22 C22  LIG A   1      16.907  29.352  13.472  1.00 20.00    -0.005 C 
ATOM     23 C23  LIG A   1      16.330  30.771  13.470  1.00 20.00    -0.039 C 
ATOM     24 C24  LIG A   1      16.649  31.611  12.227  1.00 20.00    -0.040 C 
ATOM     25 C25  LIG A   1      18.132  31.896  12.006  1.00 20.00    -0.008 C 
ATOM     26 N26  LIG A   1      18.291  32.875  10.929  1.00 20.00    -0.330 NA
ATOM     27 C27  LIG A   1      20.519  24.739  14.492  1.00 20.00    -0.038 A 
ATOM     28 C28  LIG A   1      21.055  23.565  13.942  1.00 20.00    -0.052 A 
ATOM     29 C29  LIG A   1      22.380  21.601  11.855  1.00 20.00    +0.264 C 
ATOM     30 O30  LIG A   1      23.296  21.894  12.626  1.00 20.00    -0.268 OA
ATOM     31 N31  LIG A   1      22.599  21.199  10.543  1.00 20.00    -0.277 NA
ATOM     32 C32  LIG A   1      23.838  20.455  10.281  1.00 20.00    +0.029 C 
ATOM     33 C33  LIG A   1      24.400  19.500  11.359  1.00 20.00    -0.034 C 
ATOM     34 C34  LIG A   1      23.474  18.535  12.126  1.00 20.00    -0.034 C 
ATOM     35 C35  LIG A   1      22.704  17.457  11.321  1.00 20.00    +0.085 C 
ATOM     36 C36  LIG A   1      22.029  16.446  12.245  1.00 20.00    +0.311 C 
ATOM     37 O37  LIG A   1      20.871  16.059  12.215  1.00 20.00    -0.252 OA
ATOM     38 O38  LIG A   1      22.886  15.892  13.130  1.00 20.00    -0.481 OA
ATOM     39 C39  LIG A   1      21.907  21.871   9.519  1.00 20.00    +0.246 C 
ATOM     40 O40  LIG A   1      21.006  22.689   9.738  1.00 20.00    -0.273 OA
ATOM     41 C41  LIG A   1      22.312  21.618   8.032  1.00 20.00    +0.088 C 
ATOM     42 N42  LIG A   1      23.233  22.717   7.643  1.00 20.00    -0.320 NA
ATOM     43 N43  LIG A   1      18.603  26.025  12.866  1.00 20.00    -0.328 NA
ATOM     44 C44  LIG A   1      19.514  24.886  12.756  1.00 20.00    +0.016 C 
ATOM     45 C45  LIG A   1      20.378  24.929  11.487  1.00 20.00    +0.059 C 
ATOM     46 O46  LIG A   1      21.335  23.870  11.460  1.00 20.00    -0.378 OA
ATOM     47 C47  LIG A   1      20.792  22.633  11.005  1.00 20.00    +0.070 C 
ATOM     48 C48  LIG A   1      21.884  21.568  11.018  1.00 20.00    +0.067 C 
ATOM     49 O49  LIG A   1      21.400  20.338  10.492  1.00 20.00    -0.394 OA
ATOM     50 H50  LIG A   1      22.254  22.121   5.271  1.00 20.00    +0.023 H 
ATOM     51 H51  LIG A   1      22.078  20.373   5.512  1.00 20.00    +0.023 H 
ATOM     52 H52  LIG A   1      20.720  21.341   4.909  1.00 20.00    +0.023 H 
ATOM     53 H53  LIG A   1      20.610  22.569   7.050  1.00 20.00    +0.032 H 
ATOM     54 H54  LIG A   1      19.100  21.107   7.794  1.00 20.00    +0.032 H 
ATOM     55 H55  LIG A   1      19.555  20.087   6.461  1.00 20.00    +0.032 H 
ATOM     56 H56  LIG A   1      21.486  18.297   6.919  1.00 20.00    +0.063 H 
ATOM     57 H57  LIG A   1      22.655  17.002   8.637  1.00 20.00    +0.063 H 
ATOM     58 H58  LIG A   1      19.228  20.335   9.960  1.00 20.00    +0.067 H 
ATOM     59 H59  LIG A   1      19.198  20.501  12.789  1.00 20.00    +0.105 H 
ATOM     60 H60  LIG A   1      18.672  22.955  11.607  1.00 20.00    +0.063 H 
ATOM     61 H61  LIG A   1      17.736  24.990  12.583  1.00 20.00    +0.064 H 
ATOM     62 H62  LIG A   1      17.717  26.409  14.488  1.00 20.00    +0.160 HD
ATOM     63 H63  LIG A   1      19.150  26.377  16.579  1.00 20.00    +0.049 H 
ATOM     64 H64  LIG A   1      20.312  27.326  15.621  1.00 20.00    +0.049 H 
ATOM     65 H65  LIG A   1      18.762  28.676  17.066  1.00 20.00    +0.030 H 
ATOM     66 H66  LIG A   1      17.393  28.137  16.108  1.00 20.00    +0.030 H 
ATOM     67 H67  LIG A   1      19.830  29.703  15.095  1.00 20.00    +0.043 H 
ATOM     68 H68  LIG A   1      18.294  30.428  15.488  1.00 20.00    +0.043 H 
ATOM     69 H69  LIG A   1      18.674  28.340  13.449  1.00 20.00    +0.122 HD
ATOM     70 H70  LIG A   1      16.701  28.896  12.495  1.00 20.00    +0.043 H 
ATOM     71 H71  LIG A   1      16.367  28.742  14.204  1.00 20.00    +0.043 H 
ATOM     72 H72  LIG A   1      16.625  31.320  14.371  1.00 20.00    +0.028 H 
ATOM     73 H73  LIG A   1      15.237  30.684  13.523  1.00 20.00    +0.028 H 
ATOM     74 H74  LIG A   1      16.107  32.562  12.328  1.00 20.00    +0.028 H 
ATOM     75 H75  LIG A   1      16.234  31.116  11.339  1.00 20.00    +0.028 H 
ATOM     76 H76  LIG A   1      18.593  32.286  12.921  1.00 20.00    +0.043 H 
ATOM     77 H77  LIG A   1      18.662  30.985  11.714  1.00 20.00    +0.043 H 
ATOM     78 H78  LIG A   1      19.285  33.072  10.804  1.00 20.00    +0.118 HD
ATOM     79 H79  LIG A   1      17.859  33.755  11.203  1.00 20.00    +0.118 HD
ATOM     80 H80  LIG A   1      21.093  25.233  15.271  1.00 20.00    +0.064 H 
ATOM     81 H81  LIG A   1      22.005  23.199  14.329  1.00 20.00    +0.063 H 
ATOM     82 H82  LIG A   1      23.714  19.849   9.385  1.00 20.00    +0.050 H 
ATOM     83 H83  LIG A   1      24.609  21.199  10.039  1.00 20.00    +0.050 H 
ATOM     84 H84  LIG A   1      24.925  20.104  12.109  1.00 20.00    +0.029 H 
ATOM     85 H85  LIG A   1      25.189  18.903  10.884  1.00 20.00    +0.029 H 
ATOM     86 H86  LIG A   1      24.130  18.010  12.837  1.00 20.00    +0.028 H 
ATOM     87 H87  LIG A   1      22.801  19.100  12.774  1.00 20.00    +0.028 H 
ATOM     88 H88  LIG A   1      23.453  16.873  10.769  1.00 20.00    +0.047 H 
ATOM     89 H89  LIG A   1      22.322  15.261  13.627  1.00 20.00    +0.296 HD
ATOM     90 H90  LIG A   1      22.863  20.690   7.905  1.00 20.00    +0.057 H 
ATOM     91 H91  LIG A   1      22.704  23.595   7.665  1.00 20.00    +0.119 HD
ATOM     92 H92  LIG A   1      23.958  22.831   8.352  1.00 20.00    +0.119 HD
ATOM     93 H93  LIG A   1      19.140  26.892  12.890  1.00 20.00    +0.118 HD
ATOM     94 H94  LIG A   1      18.011  26.078  12.039  1.00 20.00    +0.118 HD
ATOM     95 H95  LIG A   1      20.161  24.855  13.639  1.00 20.00    +0.045 H 
ATOM     96 H96  LIG A   1      18.925  23.963  12.782  1.00 20.00    +0.045 H 
ATOM     97 H97  LIG A   1      20.946  25.866  11.472  1.00 20.00    +0.058 H 
ATOM     98 H98  LIG A   1      19.761  24.912  10.580  1.00 20.00    +0.058 H 
ATOM     99 H99  LIG A   1      19.963  22.311  11.645  1.00 20.00    +0.059 H 
ATOM    100 H100 LIG A   1      20.402  22.749   9.987  1.00 20.00    +0.059 H 
ATOM    101 H101 LIG A   1      22.231  21.394  12.043  1.00 20.00    +0.059 H 
ATOM    102 H102 LIG A   1      22.755  21.888  10.436  1.00 20.00    +0.059 H 
ATOM    103 H103 LIG A   1      21.274  20.462   9.536  1.00 20.00    +0.210 HD
ENDROOT
TORSDOF 0
                                                                                                          
ENDMDL
MODEL 6
REMARK VINA RESULT:   -10.027      3.772     10.411
REMARK INTER + INTRA:         -10.027
REMARK INTER:                 -10.027
REMARK INTRA:                   0.000
REMARK UNBOUND:                 0.000
ROOT
ATOM      1 C1   LIG A   1      26.610  18.569   7.103  1.00 20.00    -0.060 C 
ATOM      2 C2   LIG A   1      25.162  18.044   7.167  1.00 20.00    -0.016 C 
ATOM      3 C3   LIG A   1      24.899  17.486   8.609  1.00 20.00    -0.023 C 
ATOM      4 C4   LIG A   1      23.978  18.331   9.452  1.00 20.00    -0.044 A 
ATOM      5 C5   LIG A   1      24.385  19.576   9.936  1.00 20.00    -0.058 A 
ATOM      6 C6   LIG A   1      23.428  20.510  10.328  1.00 20.00    -0.054 A 
ATOM      7 C7   LIG A   1      22.057  20.222  10.203  1.00 20.00    +0.009 A 
ATOM      8 C8   LIG A   1      21.669  18.912   9.865  1.00 20.00    +0.130 A 
ATOM      9 C9   LIG A   1      22.636  17.953   9.563  1.00 20.00    -0.016 A 
ATOM     10 O10  LIG A   1      20.323  18.645   9.727  1.00 20.00    -0.464 OA
ATOM     11 C11  LIG A   1      19.915  17.759   8.750  1.00 20.00    +0.104 C 
ATOM     12 C12  LIG A   1      19.888  17.936   7.410  1.00 20.00    +0.082 C 
ATOM     13 C13  LIG A   1      19.254  16.890   6.577  1.00 20.00    -0.010 A 
ATOM     14 C14  LIG A   1      19.719  15.571   6.613  1.00 20.00    -0.052 A 
ATOM     15 C15  LIG A   1      19.114  14.575   5.834  1.00 20.00    -0.038 A 
ATOM     16 C16  LIG A   1      18.019  14.859   5.007  1.00 20.00    +0.034 A 
ATOM     17 N17  LIG A   1      17.511  13.830   4.209  1.00 20.00    -0.385 NA
ATOM     18 C18  LIG A   1      16.262  14.022   3.475  1.00 20.00    +0.016 C 
ATOM     19 C19  LIG A   1      15.891  12.755   2.697  1.00 20.00    -0.023 C 
ATOM     20 C20  LIG A   1      16.797  12.481   1.487  1.00 20.00    -0.003 C 
ATOM     21 N21  LIG A   1      18.202  12.212   1.809  1.00 20.00    -0.317 NA
ATOM     22 C22  LIG A   1      18.452  10.889   2.378  1.00 20.00    -0.005 C 
ATOM     23 C23  LIG A   1      18.397   9.739   1.367  1.00 20.00    -0.039 C 
ATOM     24 C24  LIG A   1      19.597   9.639   0.417  1.00 20.00    -0.040 C 
ATOM     25 C25  LIG A   1      19.786  10.838  -0.510  1.00 20.00    -0.008 C 
ATOM     26 N26  LIG A   1      20.816  10.534  -1.505  1.00 20.00    -0.330 NA
ATOM     27 C27  LIG A   1      17.593  16.188   4.938  1.00 20.00    -0.038 A 
ATOM     28 C28  LIG A   1      18.189  17.187   5.722  1.00 20.00    -0.052 A 
ATOM     29 C29  LIG A   1      20.344  19.231   6.791  1.00 20.00    +0.264 C 
ATOM     30 O30  LIG A   1      19.549  19.927   6.155  1.00 20.00    -0.268 OA
ATOM     31 N31  LIG A   1      21.670  19.595   6.992  1.00 20.00    -0.277 NA
ATOM     32 C32  LIG A   1      21.949  21.034   7.092  1.00 20.00    +0.029 C 
ATOM     33 C33  LIG A   1      20.908  21.972   7.746  1.00 20.00    -0.034 C 
ATOM     34 C34  LIG A   1      20.197  21.581   9.056  1.00 20.00    -0.034 C 
ATOM     35 C35  LIG A   1      21.060  21.365  10.326  1.00 20.00    +0.085 C 
ATOM     36 C36  LIG A   1      20.191  21.220  11.574  1.00 20.00    +0.311 C 
ATOM     37 O37  LIG A   1      20.253  20.357  12.434  1.00 20.00    -0.252 OA
ATOM     38 O38  LIG A   1      19.321  22.242  11.728  1.00 20.00    -0.481 OA
ATOM     39 C39  LIG A   1      22.671  18.668   6.654  1.00 20.00    +0.246 C 
ATOM     40 O40  LIG A   1      22.428  17.498   6.334  1.00 20.00    -0.273 OA
ATOM     41 C41  LIG A   1      24.163  19.130   6.630  1.00 20.00    +0.088 C 
ATOM     42 N42  LIG A   1      24.491  19.461   5.219  1.00 20.00    -0.320 NA
ATOM     43 N43  LIG A   1      19.184  13.886   4.568  1.00 20.00    -0.328 NA
ATOM     44 C44  LIG A   1      19.333  15.208   5.175  1.00 20.00    +0.016 C 
ATOM     45 C45  LIG A   1      20.588  15.951   4.693  1.00 20.00    +0.059 C 
ATOM     46 O46  LIG A   1      20.650  17.281   5.210  1.00 20.00    -0.378 OA
ATOM     47 C47  LIG A   1      21.167  17.342   6.538  1.00 20.00    +0.070 C 
ATOM     48 C48  LIG A   1      21.188  18.795   7.004  1.00 20.00    +0.067 C 
ATOM     49 O49  LIG A   1      21.775  18.906   8.294  1.00 20.00    -0.394 OA
ATOM     50 H50  LIG A   1      26.899  18.830   6.079  1.00 20.00    +0.023 H 
ATOM     51 H51  LIG A   1      26.740  19.455   7.731  1.00 20.00    +0.023 H 
ATOM     52 H52  LIG A   1      27.316  17.803   7.444  1.00 20.00    +0.023 H 
ATOM     53 H53  LIG A   1      25.123  17.174   6.494  1.00 20.00    +0.032 H 
ATOM     54 H54  LIG A   1      24.466  16.482   8.509  1.00 20.00    +0.032 H 
ATOM     55 H55  LIG A   1      25.837  17.332   9.156  1.00 20.00    +0.032 H 
ATOM     56 H56  LIG A   1      25.435  19.863   9.916  1.00 20.00    +0.063 H 
ATOM     57 H57  LIG A   1      23.762  21.501  10.632  1.00 20.00    +0.063 H 
ATOM     58 H58  LIG A   1      22.335  16.959   9.241  1.00 20.00    +0.067 H 
ATOM     59 H59  LIG A   1      19.502  16.882   9.236  1.00 20.00    +0.105 H 
ATOM     60 H60  LIG A   1      20.579  15.307   7.223  1.00 20.00    +0.063 H 
ATOM     61 H61  LIG A   1      19.525  13.569   5.867  1.00 20.00    +0.064 H 
ATOM     62 H62  LIG A   1      17.558  12.936   4.694  1.00 20.00    +0.160 HD
ATOM     63 H63  LIG A   1      15.452  14.250   4.180  1.00 20.00    +0.049 H 
ATOM     64 H64  LIG A   1      16.352  14.858   2.770  1.00 20.00    +0.049 H 
ATOM     65 H65  LIG A   1      14.867  12.881   2.320  1.00 20.00    +0.030 H 
ATOM     66 H66  LIG A   1      15.866  11.888   3.368  1.00 20.00    +0.030 H 
ATOM     67 H67  LIG A   1      16.777  13.362   0.835  1.00 20.00    +0.043 H 
ATOM     68 H68  LIG A   1      16.371  11.667   0.891  1.00 20.00    +0.043 H 
ATOM     69 H69  LIG A   1      18.497  12.921   2.494  1.00 20.00    +0.122 HD
ATOM     70 H70  LIG A   1      19.451  10.900   2.833  1.00 20.00    +0.043 H 
ATOM     71 H71  LIG A   1      17.755  10.684   3.198  1.00 20.00    +0.043 H 
ATOM     72 H72  LIG A   1      17.469   9.766   0.786  1.00 20.00    +0.028 H 
ATOM     73 H73  LIG A   1      18.362   8.800   1.936  1.00 20.00    +0.028 H 
ATOM     74 H74  LIG A   1      19.460   8.732  -0.186  1.00 20.00    +0.028 H 
ATOM     75 H75  LIG A   1      20.512   9.482   1.004  1.00 20.00    +0.028 H 
ATOM     76 H76  LIG A   1      18.848  11.084  -1.022  1.00 20.00    +0.043 H 
ATOM     77 H77  LIG A   1      20.111  11.716   0.055  1.00 20.00    +0.043 H 
ATOM     78 H78  LIG A   1      20.919  11.335  -2.130  1.00 20.00    +0.118 HD
ATOM     79 H79  LIG A   1      20.508   9.757  -2.086  1.00 20.00    +0.118 HD
ATOM     80 H80  LIG A   1      16.785  16.488   4.276  1.00 20.00    +0.064 H 
ATOM     81 H81  LIG A   1      17.805  18.203   5.643  1.00 20.00    +0.063 H 
ATOM     82 H82  LIG A   1      22.873  21.186   7.648  1.00 20.00    +0.050 H 
ATOM     83 H83  LIG A   1      22.147  21.390   6.073  1.00 20.00    +0.050 H 
ATOM     84 H84  LIG A   1      20.125  22.179   7.006  1.00 20.00    +0.029 H 
ATOM     85 H85  LIG A   1      21.399  22.941   7.905  1.00 20.00    +0.029 H 
ATOM     86 H86  LIG A   1      19.502  22.407   9.266  1.00 20.00    +0.028 H 
ATOM     87 H87  LIG A   1      19.533  20.731   8.881  1.00 20.00    +0.028 H 
ATOM     88 H88  LIG A   1      21.628  22.291  10.489  1.00 20.00    +0.047 H 
ATOM     89 H89  LIG A   1      18.860  22.023  12.565  1.00 20.00    +0.296 HD
ATOM     90 H90  LIG A   1      24.325  20.036   7.209  1.00 20.00    +0.057 H 
ATOM     91 H91  LIG A   1      24.436  18.596   4.671  1.00 20.00    +0.119 HD
ATOM     92 H92  LIG A   1      23.768  20.065   4.826  1.00 20.00    +0.119 HD
ATOM     93 H93  LIG A   1      19.115  13.980   3.555  1.00 20.00    +0.118 HD
ATOM     94 H94  LIG A   1      20.015  13.325   4.747  1.00 20.00    +0.118 HD
ATOM     95 H95  LIG A   1      18.444  15.809   4.955  1.00 20.00    +0.045 H 
ATOM     96 H96  LIG A   1      19.357  15.093   6.263  1.00 20.00    +0.045 H 
ATOM     97 H97  LIG A   1      20.553  16.042   3.600  1.00 20.00    +0.058 H 
ATOM     98 H98  LIG A   1      21.503  15.399   4.942  1.00 20.00    +0.058 H 
ATOM     99 H99  LIG A   1      20.554  16.750   7.224  1.00 20.00    +0.059 H 
ATOM    100 H100 LIG A   1      22.184  16.933   6.561  1.00 20.00    +0.059 H 
ATOM    101 H101 LIG A   1      20.168  19.192   7.051  1.00 20.00    +0.059 H 
ATOM    102 H102 LIG A   1      21.744  19.426   6.302  1.00 20.00    +0.059 H 
ATOM    103 H103 LIG A   1      22.727  18.730   8.196  1.00 20.00    +0.210 HD
ENDROOT
TORSDOF 0
                                                                                                          
ENDMDL
MODEL 7
REMARK VINA RESULT:    -9.938      3.171      9.263
REMARK INTER + INTRA:          -9.938
REMARK INTER:                  -9.938
REMARK INTRA:                   0.000
REMARK UNBOUND:                 0.000
ROOT
ATOM      1 C1   LIG A   1      22.489  23.354  15.060  1.00 20.00    -0.060 C 
ATOM      2 C2   LIG A   1      21.835  22.507  13.950  1.00 20.00    -0.016 C 
ATOM      3 C3   LIG A   1      20.516  23.219  13.492  1.00 20.00    -0.023 C 
ATOM      4 C4   LIG A   1      20.582  23.847  12.123  1.00 20.00    -0.044 A 
ATOM      5 C5   LIG A   1      21.356  24.985  11.890  1.00 20.00    -0.058 A 
ATOM      6 C6   LIG A   1      21.752  25.297  10.591  1.00 20.00    -0.054 A 
ATOM      7 C7   LIG A   1      21.408  24.452   9.519  1.00 20.00    +0.009 A 
ATOM      8 C8   LIG A   1      20.500  23.403   9.749  1.00 20.00    +0.130 A 
ATOM      9 C9   LIG A   1      20.034  23.152  11.040  1.00 20.00    -0.016 A 
ATOM     10 O10  LIG A   1      20.184  22.570   8.697  1.00 20.00    -0.464 OA
ATOM     11 C11  LIG A   1      19.985  21.226   8.945  1.00 20.00    +0.104 C 
ATOM     12 C12  LIG A   1      20.900  20.281   9.253  1.00 20.00    +0.082 C 
ATOM     13 C13  LIG A   1      20.458  18.870   9.318  1.00 20.00    -0.010 A 
ATOM     14 C14  LIG A   1      19.439  18.481  10.194  1.00 20.00    -0.052 A 
ATOM     15 C15  LIG A   1      19.010  17.148  10.249  1.00 20.00    -0.038 A 
ATOM     16 C16  LIG A   1      19.571  16.165   9.423  1.00 20.00    +0.034 A 
ATOM     17 N17  LIG A   1      19.139  14.845   9.582  1.00 20.00    -0.385 NA
ATOM     18 C18  LIG A   1      19.551  13.821   8.626  1.00 20.00    +0.016 C 
ATOM     19 C19  LIG A   1      18.935  12.464   8.986  1.00 20.00    -0.023 C 
ATOM     20 C20  LIG A   1      19.538  11.822  10.243  1.00 20.00    -0.003 C 
ATOM     21 N21  LIG A   1      19.324  12.567  11.488  1.00 20.00    -0.317 NA
ATOM     22 C22  LIG A   1      17.964  12.485  12.018  1.00 20.00    -0.005 C 
ATOM     23 C23  LIG A   1      17.619  11.149  12.685  1.00 20.00    -0.039 C 
ATOM     24 C24  LIG A   1      18.252  10.917  14.063  1.00 20.00    -0.040 C 
ATOM     25 C25  LIG A   1      19.777  10.865  14.071  1.00 20.00    -0.008 C 
ATOM     26 N26  LIG A   1      20.249  10.427  15.385  1.00 20.00    -0.330 NA
ATOM     27 C27  LIG A   1      20.622  16.551   8.587  1.00 20.00    -0.038 A 
ATOM     28 C28  LIG A   1      21.049  17.885   8.521  1.00 20.00    -0.052 A 
ATOM     29 C29  LIG A   1      22.361  20.627   9.372  1.00 20.00    +0.264 C 
ATOM     30 O30  LIG A   1      23.182  20.119   8.605  1.00 20.00    -0.268 OA
ATOM     31 N31  LIG A   1      22.715  21.546  10.353  1.00 20.00    -0.277 NA
ATOM     32 C32  LIG A   1      23.850  22.427  10.051  1.00 20.00    +0.029 C 
ATOM     33 C33  LIG A   1      24.085  22.901   8.598  1.00 20.00    -0.034 C 
ATOM     34 C34  LIG A   1      22.915  23.393   7.723  1.00 20.00    -0.034 C 
ATOM     35 C35  LIG A   1      22.122  24.641   8.188  1.00 20.00    +0.085 C 
ATOM     36 C36  LIG A   1      21.165  25.131   7.103  1.00 20.00    +0.311 C 
ATOM     37 O37  LIG A   1      19.980  25.403   7.215  1.00 20.00    -0.252 OA
ATOM     38 O38  LIG A   1      21.779  25.341   5.919  1.00 20.00    -0.481 OA
ATOM     39 C39  LIG A   1      22.301  21.298  11.674  1.00 20.00    +0.246 C 
ATOM     40 O40  LIG A   1      21.514  20.393  11.976  1.00 20.00    -0.273 OA
ATOM     41 C41  LIG A   1      22.886  22.166  12.833  1.00 20.00    +0.088 C 
ATOM     42 N42  LIG A   1      24.014  21.398  13.421  1.00 20.00    -0.320 NA
ATOM     43 N43  LIG A   1      19.200  15.892  10.935  1.00 20.00    -0.328 NA
ATOM     44 C44  LIG A   1      19.931  17.046  10.410  1.00 20.00    +0.016 C 
ATOM     45 C45  LIG A   1      20.976  17.592  11.393  1.00 20.00    +0.059 C 
ATOM     46 O46  LIG A   1      21.752  18.642  10.815  1.00 20.00    -0.378 OA
ATOM     47 C47  LIG A   1      21.101  19.910  10.857  1.00 20.00    +0.070 C 
ATOM     48 C48  LIG A   1      22.000  20.960  10.213  1.00 20.00    +0.067 C 
ATOM     49 O49  LIG A   1      21.420  22.255  10.310  1.00 20.00    -0.394 OA
ATOM     50 H50  LIG A   1      23.332  22.830  15.524  1.00 20.00    +0.023 H 
ATOM     51 H51  LIG A   1      22.854  24.308  14.668  1.00 20.00    +0.023 H 
ATOM     52 H52  LIG A   1      21.771  23.566  15.860  1.00 20.00    +0.023 H 
ATOM     53 H53  LIG A   1      21.522  21.567  14.429  1.00 20.00    +0.032 H 
ATOM     54 H54  LIG A   1      19.709  22.474  13.502  1.00 20.00    +0.032 H 
ATOM     55 H55  LIG A   1      20.201  23.981  14.216  1.00 20.00    +0.032 H 
ATOM     56 H56  LIG A   1      21.740  25.575  12.721  1.00 20.00    +0.063 H 
ATOM     57 H57  LIG A   1      22.416  26.145  10.437  1.00 20.00    +0.063 H 
ATOM     58 H58  LIG A   1      19.381  22.303  11.228  1.00 20.00    +0.067 H 
ATOM     59 H59  LIG A   1      18.942  20.995   8.752  1.00 20.00    +0.105 H 
ATOM     60 H60  LIG A   1      18.989  19.204  10.870  1.00 20.00    +0.063 H 
ATOM     61 H61  LIG A   1      18.238  16.880  10.967  1.00 20.00    +0.064 H 
ATOM     62 H62  LIG A   1      18.146  14.811   9.804  1.00 20.00    +0.160 HD
ATOM     63 H63  LIG A   1      19.217  14.101   7.619  1.00 20.00    +0.049 H 
ATOM     64 H64  LIG A   1      20.644  13.721   8.611  1.00 20.00    +0.049 H 
ATOM     65 H65  LIG A   1      19.117  11.780   8.146  1.00 20.00    +0.030 H 
ATOM     66 H66  LIG A   1      17.846  12.553   9.078  1.00 20.00    +0.030 H 
ATOM     67 H67  LIG A   1      20.622  11.735  10.100  1.00 20.00    +0.043 H 
ATOM     68 H68  LIG A   1      19.173  10.793  10.338  1.00 20.00    +0.043 H 
ATOM     69 H69  LIG A   1      19.536  13.555  11.290  1.00 20.00    +0.122 HD
ATOM     70 H70  LIG A   1      17.843  13.282  12.763  1.00 20.00    +0.043 H 
ATOM     71 H71  LIG A   1      17.230  12.698  11.233  1.00 20.00    +0.043 H 
ATOM     72 H72  LIG A   1      17.854  10.305  12.026  1.00 20.00    +0.028 H 
ATOM     73 H73  LIG A   1      16.531  11.120  12.825  1.00 20.00    +0.028 H 
ATOM     74 H74  LIG A   1      17.854   9.968  14.448  1.00 20.00    +0.028 H 
ATOM     75 H75  LIG A   1      17.907  11.697  14.755  1.00 20.00    +0.028 H 
ATOM     76 H76  LIG A   1      20.146  10.174  13.304  1.00 20.00    +0.043 H 
ATOM     77 H77  LIG A   1      20.199  11.855  13.875  1.00 20.00    +0.043 H 
ATOM     78 H78  LIG A   1      21.269  10.378  15.372  1.00 20.00    +0.118 HD
ATOM     79 H79  LIG A   1      19.920   9.481  15.566  1.00 20.00    +0.118 HD
ATOM     80 H80  LIG A   1      21.138  15.829   7.960  1.00 20.00    +0.064 H 
ATOM     81 H81  LIG A   1      21.860  18.135   7.838  1.00 20.00    +0.063 H 
ATOM     82 H82  LIG A   1      23.774  23.334  10.649  1.00 20.00    +0.050 H 
ATOM     83 H83  LIG A   1      24.754  21.911  10.399  1.00 20.00    +0.050 H 
ATOM     84 H84  LIG A   1      24.576  22.088   8.049  1.00 20.00    +0.029 H 
ATOM     85 H85  LIG A   1      24.837  23.701   8.635  1.00 20.00    +0.029 H 
ATOM     86 H86  LIG A   1      23.365  23.632   6.748  1.00 20.00    +0.028 H 
ATOM     87 H87  LIG A   1      22.245  22.561   7.494  1.00 20.00    +0.028 H 
ATOM     88 H88  LIG A   1      22.847  25.457   8.307  1.00 20.00    +0.047 H 
ATOM     89 H89  LIG A   1      21.056  25.667   5.343  1.00 20.00    +0.296 HD
ATOM     90 H90  LIG A   1      23.300  23.106  12.478  1.00 20.00    +0.057 H 
ATOM     91 H91  LIG A   1      23.629  20.549  13.847  1.00 20.00    +0.119 HD
ATOM     92 H92  LIG A   1      24.630  21.063  12.679  1.00 20.00    +0.119 HD
ATOM     93 H93  LIG A   1      19.854  15.137  11.139  1.00 20.00    +0.118 HD
ATOM     94 H94  LIG A   1      18.758  16.134  11.820  1.00 20.00    +0.118 HD
ATOM     95 H95  LIG A   1      20.422  16.765   9.472  1.00 20.00    +0.045 H 
ATOM     96 H96  LIG A   1      19.210  17.828  10.150  1.00 20.00    +0.045 H 
ATOM     97 H97  LIG A   1      21.677  16.791  11.653  1.00 20.00    +0.058 H 
ATOM     98 H98  LIG A   1      20.511  17.929  12.328  1.00 20.00    +0.058 H 
ATOM     99 H99  LIG A   1      20.144  19.876  10.326  1.00 20.00    +0.059 H 
ATOM    100 H100 LIG A   1      20.895  20.189  11.898  1.00 20.00    +0.059 H 
ATOM    101 H101 LIG A   1      22.155  20.728   9.154  1.00 20.00    +0.059 H 
ATOM    102 H102 LIG A   1      22.989  20.975  10.684  1.00 20.00    +0.059 H 
ATOM    103 H103 LIG A   1      21.464  22.523  11.244  1.00 20.00    +0.210 HD
ENDROOT
TORSDOF 0
                                                                                                          
ENDMDL
MODEL 8
REMARK VINA RESULT:    -9.922      3.591     10.735
REMARK INTER + INTRA:          -9.922
REMARK INTER:                  -9.922
REMARK INTRA:                   0.000
REMARK UNBOUND:                 0.000
ROOT
ATOM      1 C1   LIG A   1      25.682  24.533  15.428  1.00 20.00    -0.060 C 
ATOM      2 C2   LIG A   1      24.495  23.939  14.644  1.00 20.00    -0.016 C 
ATOM      3 C3   LIG A   1      23.374  23.538  15.665  1.00 20.00    -0.023 C 
ATOM      4 C4   LIG A   1      22.154  24.422  15.639  1.00 20.00    -0.044 A 
ATOM      5 C5   LIG A   1      22.206  25.735  16.111  1.00 20.00    -0.058 A 
ATOM      6 C6   LIG A   1      21.241  26.654  15.702  1.00 20.00    -0.054 A 
ATOM      7 C7   LIG A   1      20.238  26.277  14.789  1.00 20.00    +0.009 A 
ATOM      8 C8   LIG A   1      20.108  24.917  14.451  1.00 20.00    +0.130 A 
ATOM      9 C9   LIG A   1      21.025  23.985  14.938  1.00 20.00    -0.016 A 
ATOM     10 O10  LIG A   1      19.135  24.561  13.542  1.00 20.00    -0.464 OA
ATOM     11 C11  LIG A   1      19.400  23.547  12.643  1.00 20.00    +0.104 C 
ATOM     12 C12  LIG A   1      20.219  23.567  11.568  1.00 20.00    +0.082 C 
ATOM     13 C13  LIG A   1      20.213  22.397  10.660  1.00 20.00    -0.010 A 
ATOM     14 C14  LIG A   1      20.516  21.119  11.142  1.00 20.00    -0.052 A 
ATOM     15 C15  LIG A   1      20.500  20.008  10.288  1.00 20.00    -0.038 A 
ATOM     16 C16  LIG A   1      20.168  20.133   8.932  1.00 20.00    +0.034 A 
ATOM     17 N17  LIG A   1      20.239  18.992   8.128  1.00 20.00    -0.385 NA
ATOM     18 C18  LIG A   1      19.726  19.028   6.760  1.00 20.00    +0.016 C 
ATOM     19 C19  LIG A   1      19.885  17.660   6.086  1.00 20.00    -0.023 C 
ATOM     20 C20  LIG A   1      21.339  17.300   5.748  1.00 20.00    -0.003 C 
ATOM     21 N21  LIG A   1      22.229  17.149   6.903  1.00 20.00    -0.317 NA
ATOM     22 C22  LIG A   1      22.031  15.916   7.664  1.00 20.00    -0.005 C 
ATOM     23 C23  LIG A   1      22.586  14.656   6.992  1.00 20.00    -0.039 C 
ATOM     24 C24  LIG A   1      24.113  14.514   7.015  1.00 20.00    -0.040 C 
ATOM     25 C25  LIG A   1      24.872  15.607   6.266  1.00 20.00    -0.008 C 
ATOM     26 N26  LIG A   1      26.289  15.248   6.174  1.00 20.00    -0.330 NA
ATOM     27 C27  LIG A   1      19.916  21.419   8.447  1.00 20.00    -0.038 A 
ATOM     28 C28  LIG A   1      19.921  22.533   9.300  1.00 20.00    -0.052 A 
ATOM     29 C29  LIG A   1      20.998  24.805  11.210  1.00 20.00    +0.264 C 
ATOM     30 O30  LIG A   1      20.793  25.377  10.137  1.00 20.00    -0.268 OA
ATOM     31 N31  LIG A   1      21.919  25.263  12.144  1.00 20.00    -0.277 NA
ATOM     32 C32  LIG A   1      22.116  26.717  12.215  1.00 20.00    +0.029 C 
ATOM     33 C33  LIG A   1      20.922  27.664  11.956  1.00 20.00    -0.034 C 
ATOM     34 C34  LIG A   1      19.538  27.388  12.577  1.00 20.00    -0.034 C 
ATOM     35 C35  LIG A   1      19.415  27.369  14.122  1.00 20.00    +0.085 C 
ATOM     36 C36  LIG A   1      17.955  27.321  14.565  1.00 20.00    +0.311 C 
ATOM     37 O37  LIG A   1      17.442  26.567  15.378  1.00 20.00    -0.252 OA
ATOM     38 O38  LIG A   1      17.208  28.303  14.016  1.00 20.00    -0.481 OA
ATOM     39 C39  LIG A   1      22.886  24.360  12.620  1.00 20.00    +0.246 C 
ATOM     40 O40  LIG A   1      22.862  23.149  12.368  1.00 20.00    -0.273 OA
ATOM     41 C41  LIG A   1      24.080  24.899  13.471  1.00 20.00    +0.088 C 
ATOM     42 N42  LIG A   1      25.225  25.082  12.542  1.00 20.00    -0.320 NA
ATOM     43 N43  LIG A   1      21.324  19.182   9.438  1.00 20.00    -0.328 NA
ATOM     44 C44  LIG A   1      21.101  20.572   9.835  1.00 20.00    +0.016 C 
ATOM     45 C45  LIG A   1      22.403  21.323  10.149  1.00 20.00    +0.059 C 
ATOM     46 O46  LIG A   1      22.167  22.705  10.421  1.00 20.00    -0.378 OA
ATOM     47 C47  LIG A   1      21.745  22.948  11.762  1.00 20.00    +0.070 C 
ATOM     48 C48  LIG A   1      21.513  24.443  11.953  1.00 20.00    +0.067 C 
ATOM     49 O49  LIG A   1      21.170  24.736  13.303  1.00 20.00    -0.394 OA
ATOM     50 H50  LIG A   1      26.553  24.691  14.783  1.00 20.00    +0.023 H 
ATOM     51 H51  LIG A   1      25.417  25.492  15.883  1.00 20.00    +0.023 H 
ATOM     52 H52  LIG A   1      25.999  23.853  16.227  1.00 20.00    +0.023 H 
ATOM     53 H53  LIG A   1      24.859  22.997  14.207  1.00 20.00    +0.032 H 
ATOM     54 H54  LIG A   1      23.070  22.506  15.444  1.00 20.00    +0.032 H 
ATOM     55 H55  LIG A   1      23.763  23.501  16.690  1.00 20.00    +0.032 H 
ATOM     56 H56  LIG A   1      23.047  26.076  16.711  1.00 20.00    +0.063 H 
ATOM     57 H57  LIG A   1      21.340  27.690  16.020  1.00 20.00    +0.063 H 
ATOM     58 H58  LIG A   1      20.961  22.945  14.626  1.00 20.00    +0.067 H 
ATOM     59 H59  LIG A   1      18.749  22.710  12.871  1.00 20.00    +0.105 H 
ATOM     60 H60  LIG A   1      20.800  20.975  12.181  1.00 20.00    +0.063 H 
ATOM     61 H61  LIG A   1      20.772  19.037  10.694  1.00 20.00    +0.064 H 
ATOM     62 H62  LIG A   1      19.948  18.164   8.644  1.00 20.00    +0.160 HD
ATOM     63 H63  LIG A   1      18.661  19.290   6.773  1.00 20.00    +0.049 H 
ATOM     64 H64  LIG A   1      20.260  19.781   6.166  1.00 20.00    +0.049 H 
ATOM     65 H65  LIG A   1      19.323  17.685   5.143  1.00 20.00    +0.030 H 
ATOM     66 H66  LIG A   1      19.422  16.877   6.698  1.00 20.00    +0.030 H 
ATOM     67 H67  LIG A   1      21.755  18.097   5.121  1.00 20.00    +0.043 H 
ATOM     68 H68  LIG A   1      21.355  16.400   5.124  1.00 20.00    +0.043 H 
ATOM     69 H69  LIG A   1      22.053  17.948   7.528  1.00 20.00    +0.122 HD
ATOM     70 H70  LIG A   1      22.529  16.035   8.635  1.00 20.00    +0.043 H 
ATOM     71 H71  LIG A   1      20.970  15.769   7.891  1.00 20.00    +0.043 H 
ATOM     72 H72  LIG A   1      22.224  14.564   5.962  1.00 20.00    +0.028 H 
ATOM     73 H73  LIG A   1      22.178  13.789   7.527  1.00 20.00    +0.028 H 
ATOM     74 H74  LIG A   1      24.356  13.537   6.577  1.00 20.00    +0.028 H 
ATOM     75 H75  LIG A   1      24.458  14.477   8.057  1.00 20.00    +0.028 H 
ATOM     76 H76  LIG A   1      24.466  15.740   5.257  1.00 20.00    +0.043 H 
ATOM     77 H77  LIG A   1      24.800  16.560   6.795  1.00 20.00    +0.043 H 
ATOM     78 H78  LIG A   1      26.782  15.976   5.655  1.00 20.00    +0.118 HD
ATOM     79 H79  LIG A   1      26.388  14.393   5.631  1.00 20.00    +0.118 HD
ATOM     80 H80  LIG A   1      19.706  21.595   7.397  1.00 20.00    +0.064 H 
ATOM     81 H81  LIG A   1      19.700  23.511   8.874  1.00 20.00    +0.063 H 
ATOM     82 H82  LIG A   1      22.496  26.983  13.200  1.00 20.00    +0.050 H 
ATOM     83 H83  LIG A   1      22.917  26.963  11.505  1.00 20.00    +0.050 H 
ATOM     84 H84  LIG A   1      20.777  27.741  10.871  1.00 20.00    +0.029 H 
ATOM     85 H85  LIG A   1      21.235  28.671  12.264  1.00 20.00    +0.029 H 
ATOM     86 H86  LIG A   1      18.889  28.193  12.204  1.00 20.00    +0.028 H 
ATOM     87 H87  LIG A   1      19.104  26.488  12.135  1.00 20.00    +0.028 H 
ATOM     88 H88  LIG A   1      19.784  28.338  14.485  1.00 20.00    +0.047 H 
ATOM     89 H89  LIG A   1      16.320  28.157  14.405  1.00 20.00    +0.296 HD
ATOM     90 H90  LIG A   1      23.872  25.873  13.906  1.00 20.00    +0.057 H 
ATOM     91 H91  LIG A   1      25.499  24.158  12.193  1.00 20.00    +0.119 HD
ATOM     92 H92  LIG A   1      24.922  25.596  11.714  1.00 20.00    +0.119 HD
ATOM     93 H93  LIG A   1      21.904  19.155   8.599  1.00 20.00    +0.118 HD
ATOM     94 H94  LIG A   1      21.847  18.693  10.163  1.00 20.00    +0.118 HD
ATOM     95 H95  LIG A   1      20.561  21.092   9.037  1.00 20.00    +0.045 H 
ATOM     96 H96  LIG A   1      20.437  20.585  10.706  1.00 20.00    +0.045 H 
ATOM     97 H97  LIG A   1      23.059  21.285   9.271  1.00 20.00    +0.058 H 
ATOM     98 H98  LIG A   1      22.947  20.856  10.979  1.00 20.00    +0.058 H 
ATOM     99 H99  LIG A   1      20.821  22.405  11.986  1.00 20.00    +0.059 H 
ATOM    100 H100 LIG A   1      22.514  22.601  12.463  1.00 20.00    +0.059 H 
ATOM    101 H101 LIG A   1      20.698  24.786  11.307  1.00 20.00    +0.059 H 
ATOM    102 H102 LIG A   1      22.402  25.020  11.677  1.00 20.00    +0.059 H 
ATOM    103 H103 LIG A   1      21.970  24.603  13.840  1.00 20.00    +0.210 HD
ENDROOT
TORSDOF 0
                                                                                                          
ENDMDL
MODEL 9
REMARK VINA RESULT:    -9.831      2.509      3.520
REMARK INTER + INTRA:          -9.831
REMARK INTER:                  -9.831
REMARK INTRA:                   0.000
REMARK UNBOUND:                 0.000
ROOT
ATOM      1 C1   LIG A   1      17.241  11.774  11.268  1.00 20.00    -0.060 C 
ATOM      2 C2   LIG A   1      18.045  12.842  10.499  1.00 20.00    -0.016 C 
ATOM      3 C3   LIG A   1      19.428  12.225  10.092  1.00 20.00    -0.023 C 
ATOM      4 C4   LIG A   1      19.580  11.936   8.620  1.00 20.00    -0.044 A 
ATOM      5 C5   LIG A   1      18.865  10.902   8.013  1.00 20.00    -0.058 A 
ATOM      6 C6   LIG A   1      18.677  10.911   6.632  1.00 20.00    -0.054 A 
ATOM      7 C7   LIG A   1      19.169  11.974   5.852  1.00 20.00    +0.009 A 
ATOM      8 C8   LIG A   1      20.018  12.920   6.457  1.00 20.00    +0.130 A 
ATOM      9 C9   LIG A   1      20.277  12.852   7.826  1.00 20.00    -0.016 A 
ATOM     10 O10  LIG A   1      20.480  13.968   5.689  1.00 20.00    -0.464 OA
ATOM     11 C11  LIG A   1      20.621  15.211   6.273  1.00 20.00    +0.104 C 
ATOM     12 C12  LIG A   1      19.657  16.079   6.651  1.00 20.00    +0.082 C 
ATOM     13 C13  LIG A   1      20.067  17.426   7.111  1.00 20.00    -0.010 A 
ATOM     14 C14  LIG A   1      20.934  17.575   8.198  1.00 20.00    -0.052 A 
ATOM     15 C15  LIG A   1      21.333  18.848   8.628  1.00 20.00    -0.038 A 
ATOM     16 C16  LIG A   1      20.892  20.010   7.980  1.00 20.00    +0.034 A 
ATOM     17 N17  LIG A   1      21.278  21.246   8.507  1.00 20.00    -0.385 NA
ATOM     18 C18  LIG A   1      21.003  22.475   7.766  1.00 20.00    +0.016 C 
ATOM     19 C19  LIG A   1      21.540  23.695   8.523  1.00 20.00    -0.023 C 
ATOM     20 C20  LIG A   1      20.744  24.040   9.789  1.00 20.00    -0.003 C 
ATOM     21 N21  LIG A   1      20.775  23.020  10.843  1.00 20.00    -0.317 NA
ATOM     22 C22  LIG A   1      22.036  22.944  11.577  1.00 20.00    -0.005 C 
ATOM     23 C23  LIG A   1      22.258  24.079  12.582  1.00 20.00    -0.039 C 
ATOM     24 C24  LIG A   1      21.420  23.998  13.864  1.00 20.00    -0.040 C 
ATOM     25 C25  LIG A   1      19.911  24.082  13.653  1.00 20.00    -0.008 C 
ATOM     26 N26  LIG A   1      19.238  24.212  14.947  1.00 20.00    -0.330 NA
ATOM     27 C27  LIG A   1      19.986  19.855   6.927  1.00 20.00    -0.038 A 
ATOM     28 C28  LIG A   1      19.591  18.583   6.486  1.00 20.00    -0.052 A 
ATOM     29 C29  LIG A   1      18.200  15.749   6.463  1.00 20.00    +0.264 C 
ATOM     30 O30  LIG A   1      17.499  16.442   5.722  1.00 20.00    -0.268 OA
ATOM     31 N31  LIG A   1      17.713  14.636   7.137  1.00 20.00    -0.277 NA
ATOM     32 C32  LIG A   1      16.648  13.876   6.468  1.00 20.00    +0.029 C 
ATOM     33 C33  LIG A   1      16.644  13.760   4.926  1.00 20.00    -0.034 C 
ATOM     34 C34  LIG A   1      17.940  13.458   4.148  1.00 20.00    -0.034 C 
ATOM     35 C35  LIG A   1      18.669  12.119   4.422  1.00 20.00    +0.085 C 
ATOM     36 C36  LIG A   1      19.787  11.873   3.411  1.00 20.00    +0.311 C 
ATOM     37 O37  LIG A   1      20.944  11.555   3.634  1.00 20.00    -0.252 OA
ATOM     38 O38  LIG A   1      19.363  11.959   2.131  1.00 20.00    -0.481 OA
ATOM     39 C39  LIG A   1      17.917  14.559   8.526  1.00 20.00    +0.246 C 
ATOM     40 O40  LIG A   1      18.637  15.350   9.147  1.00 20.00    -0.273 OA
ATOM     41 C41  LIG A   1      17.173  13.458   9.347  1.00 20.00    +0.088 C 
ATOM     42 N42  LIG A   1      15.959  14.094   9.920  1.00 20.00    -0.320 NA
ATOM     43 N43  LIG A   1      21.024  19.913   9.552  1.00 20.00    -0.328 NA
ATOM     44 C44  LIG A   1      20.397  18.932   8.666  1.00 20.00    +0.016 C 
ATOM     45 C45  LIG A   1      19.222  18.195   9.325  1.00 20.00    +0.059 C 
ATOM     46 O46  LIG A   1      18.556  17.328   8.406  1.00 20.00    -0.378 OA
ATOM     47 C47  LIG A   1      19.210  16.071   8.248  1.00 20.00    +0.070 C 
ATOM     48 C48  LIG A   1      18.433  15.221   7.247  1.00 20.00    +0.067 C 
ATOM     49 O49  LIG A   1      19.008  13.926   7.125  1.00 20.00    -0.394 OA
ATOM     50 H50  LIG A   1      16.331  12.195  11.708  1.00 20.00    +0.023 H 
ATOM     51 H51  LIG A   1      16.952  10.947  10.613  1.00 20.00    +0.023 H 
ATOM     52 H52  LIG A   1      17.832  11.364  12.094  1.00 20.00    +0.023 H 
ATOM     53 H53  LIG A   1      18.269  13.636  11.227  1.00 20.00    +0.032 H 
ATOM     54 H54  LIG A   1      20.215  12.928  10.398  1.00 20.00    +0.032 H 
ATOM     55 H55  LIG A   1      19.639  11.308  10.656  1.00 20.00    +0.032 H 
ATOM     56 H56  LIG A   1      18.367  10.143   8.614  1.00 20.00    +0.063 H 
ATOM     57 H57  LIG A   1      18.054  10.138   6.186  1.00 20.00    +0.063 H 
ATOM     58 H58  LIG A   1      20.883  13.618   8.304  1.00 20.00    +0.067 H 
ATOM     59 H59  LIG A   1      21.678  15.457   6.299  1.00 20.00    +0.105 H 
ATOM     60 H60  LIG A   1      21.286  16.704   8.745  1.00 20.00    +0.063 H 
ATOM     61 H61  LIG A   1      21.983  18.923   9.496  1.00 20.00    +0.064 H 
ATOM     62 H62  LIG A   1      22.225  21.204   8.878  1.00 20.00    +0.160 HD
ATOM     63 H63  LIG A   1      21.491  22.429   6.784  1.00 20.00    +0.049 H 
ATOM     64 H64  LIG A   1      19.924  22.600   7.610  1.00 20.00    +0.049 H 
ATOM     65 H65  LIG A   1      21.479  24.560   7.849  1.00 20.00    +0.030 H 
ATOM     66 H66  LIG A   1      22.603  23.562   8.755  1.00 20.00    +0.030 H 
ATOM     67 H67  LIG A   1      19.693  24.183   9.508  1.00 20.00    +0.043 H 
ATOM     68 H68  LIG A   1      21.077  25.009  10.176  1.00 20.00    +0.043 H 
ATOM     69 H69  LIG A   1      20.608  22.111  10.389  1.00 20.00    +0.122 HD
ATOM     70 H70  LIG A   1      22.052  21.992  12.124  1.00 20.00    +0.043 H 
ATOM     71 H71  LIG A   1      22.884  22.903  10.884  1.00 20.00    +0.043 H 
ATOM     72 H72  LIG A   1      22.116  25.058  12.111  1.00 20.00    +0.028 H 
ATOM     73 H73  LIG A   1      23.312  24.049  12.888  1.00 20.00    +0.028 H 
ATOM     74 H74  LIG A   1      21.742  24.821  14.516  1.00 20.00    +0.028 H 
ATOM     75 H75  LIG A   1      21.665  23.070  14.398  1.00 20.00    +0.028 H 
ATOM     76 H76  LIG A   1      19.654  24.941  13.023  1.00 20.00    +0.043 H 
ATOM     77 H77  LIG A   1      19.537  23.175  13.169  1.00 20.00    +0.043 H 
ATOM     78 H78  LIG A   1      18.232  24.287  14.791  1.00 20.00    +0.118 HD
ATOM     79 H79  LIG A   1      19.523  25.082  15.391  1.00 20.00    +0.118 HD
ATOM     80 H80  LIG A   1      19.562  20.714   6.416  1.00 20.00    +0.064 H 
ATOM     81 H81  LIG A   1      18.897  18.518   5.650  1.00 20.00    +0.063 H 
ATOM     82 H82  LIG A   1      16.644  12.853   6.842  1.00 20.00    +0.050 H 
ATOM     83 H83  LIG A   1      15.695  14.318   6.787  1.00 20.00    +0.050 H 
ATOM     84 H84  LIG A   1      16.232  14.690   4.516  1.00 20.00    +0.029 H 
ATOM     85 H85  LIG A   1      15.905  12.991   4.661  1.00 20.00    +0.029 H 
ATOM     86 H86  LIG A   1      17.647  13.464   3.087  1.00 20.00    +0.028 H 
ATOM     87 H87  LIG A   1      18.626  14.305   4.225  1.00 20.00    +0.028 H 
ATOM     88 H88  LIG A   1      17.944  11.314   4.236  1.00 20.00    +0.047 H 
ATOM     89 H89  LIG A   1      20.170  11.760   1.611  1.00 20.00    +0.296 HD
ATOM     90 H90  LIG A   1      16.830  12.636   8.723  1.00 20.00    +0.057 H 
ATOM     91 H91  LIG A   1      16.263  14.811  10.587  1.00 20.00    +0.119 HD
ATOM     92 H92  LIG A   1      15.459  14.607   9.194  1.00 20.00    +0.119 HD
ATOM     93 H93  LIG A   1      20.337  20.615   9.826  1.00 20.00    +0.118 HD
ATOM     94 H94  LIG A   1      21.330  19.461  10.412  1.00 20.00    +0.118 HD
ATOM     95 H95  LIG A   1      20.051  19.435   7.757  1.00 20.00    +0.045 H 
ATOM     96 H96  LIG A   1      21.159  18.216   8.343  1.00 20.00    +0.045 H 
ATOM     97 H97  LIG A   1      18.478  18.930   9.656  1.00 20.00    +0.058 H 
ATOM     98 H98  LIG A   1      19.543  17.639  10.214  1.00 20.00    +0.058 H 
ATOM     99 H99  LIG A   1      20.235  16.205   7.890  1.00 20.00    +0.059 H 
ATOM    100 H100 LIG A   1      19.258  15.552   9.213  1.00 20.00    +0.059 H 
ATOM    101 H101 LIG A   1      18.438  15.698   6.261  1.00 20.00    +0.059 H 
ATOM    102 H102 LIG A   1      17.384  15.120   7.546  1.00 20.00    +0.059 H 
ATOM    103 H103 LIG A   1      18.826  13.449   7.953  1.00 20.00    +0.210 HD
ENDROOT
TORSDOF 0
                                                                                                          
ENDMDL
