ROOT
ATOM      1 N1   LIG A   1      -8.302   1.330  -0.590  1.00 20.00    -0.330 NA
ATOM      2 C2   LIG A   1      -7.858   0.164   0.162  1.00 20.00    -0.008 C 
ATOM      3 C3   LIG A   1      -6.562   0.427   0.932  1.00 20.00    -0.040 C 
ATOM      4 C4   LIG A   1      -5.352   0.670   0.024  1.00 20.00    -0.039 C 
ATOM      5 C5   LIG A   1      -4.057   0.953   0.797  1.00 20.00    -0.005 C 
ATOM      6 N6   LIG A   1      -3.606  -0.096   1.715  1.00 20.00    -0.317 NA
ATOM      7 C7   LIG A   1      -3.300  -1.383   1.092  1.00 20.00    -0.003 C 
ATOM      8 C8   LIG A   1      -2.140  -1.362   0.094  1.00 20.00    -0.023 C 
ATOM      9 C9   LIG A   1      -0.833  -0.871   0.720  1.00 20.00    +0.016 C 
ATOM     10 N10  LIG A   1       0.250  -1.007  -0.256  1.00 20.00    -0.385 NA
ATOM     11 C11  LIG A   1       1.536  -0.565   0.066  1.00 20.00    +0.035 A 
ATOM     12 C12  LIG A   1       1.992  -0.392   1.379  1.00 20.00    -0.038 A 
ATOM     13 C13  LIG A   1       3.316  -0.022   1.645  1.00 20.00    -0.048 A 
ATOM     14 C14  LIG A   1       4.219   0.155   0.595  1.00 20.00    +0.034 A 
ATOM     15 C15  LIG A   1       3.796  -0.046  -0.714  1.00 20.00    +0.036 A 
ATOM     16 C16  LIG A   1       2.468  -0.417  -0.972  1.00 20.00    -0.027 A 
ATOM     17 C17  LIG A   1       4.739   0.123  -1.838  1.00 20.00    +0.194 C 
ATOM     18 O18  LIG A   1       4.366  -0.043  -2.994  1.00 20.00    -0.289 OA
ATOM     19 C19  LIG A   1       6.138   0.500  -1.552  1.00 20.00    +0.034 A 
ATOM     20 C20  LIG A   1       7.044   0.656  -2.609  1.00 20.00    -0.050 A 
ATOM     21 C21  LIG A   1       8.368   1.013  -2.348  1.00 20.00    -0.061 A 
ATOM     22 C22  LIG A   1       8.790   1.216  -1.035  1.00 20.00    -0.061 A 
ATOM     23 C23  LIG A   1       7.889   1.061   0.021  1.00 20.00    -0.050 A 
ATOM     24 C24  LIG A   1       6.560   0.702  -0.239  1.00 20.00    +0.034 A 
ATOM     25 C25  LIG A   1       5.614   0.541   0.883  1.00 20.00    +0.194 C 
ATOM     26 O26  LIG A   1       5.983   0.725   2.038  1.00 20.00    -0.289 OA
ATOM     27 O27  LIG A   1       3.448   1.016  -0.297  1.00 20.00    -0.251 OA
ATOM     28 C28  LIG A   1       2.329   0.954   0.188  1.00 20.00    +0.317 C 
ATOM     29 O29  LIG A   1       1.812   2.018   0.844  1.00 20.00    -0.480 OA
ATOM     30 C30  LIG A   1       1.429  -0.274   0.220  1.00 20.00    +0.094 C 
ATOM     31 N31  LIG A   1       0.007   0.119   0.169  1.00 20.00    -0.306 NA
ATOM     32 C32  LIG A   1      -0.867  -1.027   0.444  1.00 20.00    +0.005 C 
ATOM     33 C33  LIG A   1      -2.353  -0.651   0.370  1.00 20.00    +0.003 C 
ATOM     34 S34  LIG A   1      -2.840  -0.103  -1.295  1.00 20.00    -0.178 SA
ATOM     35 H35  LIG A   1      -9.194   1.122  -1.037  1.00 20.00    +0.118 HD
ATOM     36 H36  LIG A   1      -7.650   1.527  -1.347  1.00 20.00    +0.118 HD
ATOM     37 H37  LIG A   1      -7.730  -0.686  -0.518  1.00 20.00    +0.043 H 
ATOM     38 H38  LIG A   1      -8.643  -0.107   0.877  1.00 20.00    +0.043 H 
ATOM     39 H39  LIG A   1      -6.373  -0.444   1.570  1.00 20.00    +0.028 H 
ATOM     40 H40  LIG A   1      -6.699   1.285   1.603  1.00 20.00    +0.028 H 
ATOM     41 H41  LIG A   1      -5.544   1.538  -0.618  1.00 20.00    +0.028 H 
ATOM     42 H42  LIG A   1      -5.214  -0.184  -0.649  1.00 20.00    +0.028 H 
ATOM     43 H43  LIG A   1      -4.201   1.864   1.391  1.00 20.00    +0.043 H 
ATOM     44 H44  LIG A   1      -3.259   1.196   0.087  1.00 20.00    +0.043 H 
ATOM     45 H45  LIG A   1      -4.313  -0.234   2.438  1.00 20.00    +0.122 HD
ATOM     46 H46  LIG A   1      -4.192  -1.801   0.611  1.00 20.00    +0.043 H 
ATOM     47 H47  LIG A   1      -3.044  -2.083   1.897  1.00 20.00    +0.043 H 
ATOM     48 H48  LIG A   1      -1.996  -2.382  -0.287  1.00 20.00    +0.030 H 
ATOM     49 H49  LIG A   1      -2.393  -0.750  -0.780  1.00 20.00    +0.030 H 
ATOM     50 H50  LIG A   1      -0.617  -1.477   1.607  1.00 20.00    +0.049 H 
ATOM     51 H51  LIG A   1      -0.929   0.178   1.023  1.00 20.00    +0.049 H 
ATOM     52 H52  LIG A   1      -0.024  -0.709  -1.191  1.00 20.00    +0.160 HD
ATOM     53 H53  LIG A   1       1.328  -0.542   2.226  1.00 20.00    +0.064 H 
ATOM     54 H54  LIG A   1       3.635   0.116   2.677  1.00 20.00    +0.063 H 
ATOM     55 H55  LIG A   1       2.158  -0.595  -2.001  1.00 20.00    +0.065 H 
ATOM     56 H56  LIG A   1       6.722   0.499  -3.637  1.00 20.00    +0.063 H 
ATOM     57 H57  LIG A   1       9.070   1.133  -3.170  1.00 20.00    +0.062 H 
ATOM     58 H58  LIG A   1       9.822   1.494  -0.831  1.00 20.00    +0.062 H 
ATOM     59 H59  LIG A   1       8.226   1.221   1.043  1.00 20.00    +0.063 H 
ATOM     60 H60  LIG A   1       2.497   2.711   0.733  1.00 20.00    +0.296 HD
ATOM     61 H61  LIG A   1       1.667  -0.894  -0.650  1.00 20.00    +0.055 H 
ATOM     62 H62  LIG A   1       1.660  -0.821   1.140  1.00 20.00    +0.055 H 
ATOM     63 H63  LIG A   1      -0.140   0.856   0.864  1.00 20.00    +0.123 HD
ATOM     64 H64  LIG A   1      -0.660  -1.839  -0.265  1.00 20.00    +0.044 H 
ATOM     65 H65  LIG A   1      -0.661  -1.411   1.450  1.00 20.00    +0.044 H 
ATOM     66 H66  LIG A   1      -2.970  -1.513   0.642  1.00 20.00    +0.039 H 
ATOM     67 H67  LIG A   1      -2.577   0.155   1.078  1.00 20.00    +0.039 H 
ATOM     68 H68  LIG A   1      -1.780   0.704  -1.474  1.00 20.00    +0.102 HD
ENDROOT
TORSDOF 0
