ROOT
ATOM      1 N1   LIG A   1      -8.128   1.087  -3.877  1.00 20.00    -0.289 NA
ATOM      2 C2   LIG A   1      -9.310   1.311  -3.407  1.00 20.00    +0.092 C 
ATOM      3 N3   LIG A   1      -9.966   2.478  -3.659  1.00 20.00    -0.388 NA
ATOM      4 C4   LIG A   1      -9.975   0.252  -2.549  1.00 20.00    +0.022 C 
ATOM      5 C5   LIG A   1      -9.282   0.135  -1.192  1.00 20.00    +0.022 C 
ATOM      6 N6   LIG A   1      -7.987  -0.532  -1.334  1.00 20.00    -0.384 NA
ATOM      7 C7   LIG A   1      -7.098  -0.543  -0.254  1.00 20.00    +0.038 A 
ATOM      8 C8   LIG A   1      -7.513  -0.473   1.083  1.00 20.00    -0.038 A 
ATOM      9 C9   LIG A   1      -6.592  -0.569   2.133  1.00 20.00    -0.045 A 
ATOM     10 C10  LIG A   1      -5.240  -0.756   1.849  1.00 20.00    +0.065 A 
ATOM     11 C11  LIG A   1      -4.245  -0.845   2.928  1.00 20.00    +0.193 C 
ATOM     12 O12  LIG A   1      -4.548  -0.775   4.112  1.00 20.00    -0.289 OA
ATOM     13 C13  LIG A   1      -2.844  -1.023   2.513  1.00 20.00    +0.030 C 
ATOM     14 C14  LIG A   1      -2.555  -1.112   1.206  1.00 20.00    +0.138 C 
ATOM     15 C15  LIG A   1      -1.171  -1.291   0.735  1.00 20.00    +0.017 A 
ATOM     16 C16  LIG A   1      -0.874  -2.267  -0.221  1.00 20.00    -0.049 A 
ATOM     17 C17  LIG A   1       0.438  -2.440  -0.679  1.00 20.00    -0.038 A 
ATOM     18 C18  LIG A   1       1.487  -1.625  -0.230  1.00 20.00    +0.034 A 
ATOM     19 N19  LIG A   1       2.780  -1.898  -0.680  1.00 20.00    -0.385 NA
ATOM     20 C20  LIG A   1       3.851  -0.909  -0.551  1.00 20.00    +0.016 C 
ATOM     21 C21  LIG A   1       4.658  -1.161   0.723  1.00 20.00    -0.023 C 
ATOM     22 C22  LIG A   1       5.706  -0.076   0.979  1.00 20.00    -0.003 C 
ATOM     23 N23  LIG A   1       6.718  -0.063  -0.076  1.00 20.00    -0.317 NA
ATOM     24 C24  LIG A   1       7.648   1.064   0.026  1.00 20.00    -0.005 C 
ATOM     25 C25  LIG A   1       8.636   0.936   1.190  1.00 20.00    -0.039 C 
ATOM     26 C26  LIG A   1       9.610   2.116   1.291  1.00 20.00    -0.040 C 
ATOM     27 C27  LIG A   1      10.594   2.193   0.123  1.00 20.00    -0.008 C 
ATOM     28 N28  LIG A   1      11.544   3.285   0.314  1.00 20.00    -0.330 NA
ATOM     29 C29  LIG A   1       1.184  -0.670   0.745  1.00 20.00    -0.038 A 
ATOM     30 C30  LIG A   1      -0.125  -0.493   1.213  1.00 20.00    -0.049 A 
ATOM     31 O31  LIG A   1      -3.497  -1.063   0.190  1.00 20.00    -0.456 OA
ATOM     32 C32  LIG A   1      -4.812  -0.865   0.532  1.00 20.00    +0.140 A 
ATOM     33 C33  LIG A   1      -5.738  -0.777  -0.510  1.00 20.00    +0.005 A 
ATOM     34 O34  LIG A   1       2.380  -0.013   0.545  1.00 20.00    -0.504 OA
ATOM     35 C35  LIG A   1       1.072  -0.210   0.201  1.00 20.00    +0.161 A 
ATOM     36 C36  LIG A   1       0.590  -1.455  -0.191  1.00 20.00    -0.016 A 
ATOM     37 C37  LIG A   1      -0.761  -1.591  -0.534  1.00 20.00    -0.055 A 
ATOM     38 C38  LIG A   1      -1.620  -0.488  -0.484  1.00 20.00    -0.016 A 
ATOM     39 C39  LIG A   1      -1.122   0.746  -0.089  1.00 20.00    +0.161 A 
ATOM     40 O40  LIG A   1      -1.957   1.824  -0.038  1.00 20.00    -0.504 OA
ATOM     41 C41  LIG A   1       0.217   0.886   0.252  1.00 20.00    +0.200 A 
ATOM     42 O42  LIG A   1       0.683   2.115   0.636  1.00 20.00    -0.502 OA
ATOM     43 H43  LIG A   1      -7.836   1.880  -4.455  1.00 20.00    +0.189 HD
ATOM     44 H44  LIG A   1      -9.403   3.275  -3.935  1.00 20.00    +0.157 HD
ATOM     45 H45  LIG A   1     -10.735   2.721  -3.044  1.00 20.00    +0.157 HD
ATOM     46 H46  LIG A   1      -9.952  -0.706  -3.083  1.00 20.00    +0.037 H 
ATOM     47 H47  LIG A   1     -11.026   0.527  -2.401  1.00 20.00    +0.037 H 
ATOM     48 H48  LIG A   1      -9.151   1.136  -0.759  1.00 20.00    +0.049 H 
ATOM     49 H49  LIG A   1      -9.924  -0.453  -0.528  1.00 20.00    +0.049 H 
ATOM     50 H50  LIG A   1      -7.525  -0.233  -2.203  1.00 20.00    +0.160 HD
ATOM     51 H51  LIG A   1      -8.562  -0.353   1.336  1.00 20.00    +0.064 H 
ATOM     52 H52  LIG A   1      -6.934  -0.497   3.165  1.00 20.00    +0.063 H 
ATOM     53 H53  LIG A   1      -2.105  -1.083   3.303  1.00 20.00    +0.070 H 
ATOM     54 H54  LIG A   1      -1.657  -2.915  -0.609  1.00 20.00    +0.063 H 
ATOM     55 H55  LIG A   1       0.634  -3.230  -1.401  1.00 20.00    +0.064 H 
ATOM     56 H56  LIG A   1       2.776  -2.345  -1.595  1.00 20.00    +0.160 HD
ATOM     57 H57  LIG A   1       4.510  -1.020  -1.421  1.00 20.00    +0.049 H 
ATOM     58 H58  LIG A   1       3.463   0.116  -0.594  1.00 20.00    +0.049 H 
ATOM     59 H59  LIG A   1       5.140  -2.146   0.666  1.00 20.00    +0.030 H 
ATOM     60 H60  LIG A   1       3.989  -1.204   1.592  1.00 20.00    +0.030 H 
ATOM     61 H61  LIG A   1       6.171  -0.272   1.951  1.00 20.00    +0.043 H 
ATOM     62 H62  LIG A   1       5.204   0.898   1.040  1.00 20.00    +0.043 H 
ATOM     63 H63  LIG A   1       7.237  -0.942  -0.062  1.00 20.00    +0.122 HD
ATOM     64 H64  LIG A   1       8.203   1.098  -0.918  1.00 20.00    +0.043 H 
ATOM     65 H65  LIG A   1       7.096   2.008   0.090  1.00 20.00    +0.043 H 
ATOM     66 H66  LIG A   1       8.085   0.883   2.137  1.00 20.00    +0.028 H 
ATOM     67 H67  LIG A   1       9.202   0.001   1.100  1.00 20.00    +0.028 H 
ATOM     68 H68  LIG A   1      10.172   2.007   2.228  1.00 20.00    +0.028 H 
ATOM     69 H69  LIG A   1       9.044   3.053   1.370  1.00 20.00    +0.028 H 
ATOM     70 H70  LIG A   1      10.067   2.361  -0.821  1.00 20.00    +0.043 H 
ATOM     71 H71  LIG A   1      11.146   1.252   0.030  1.00 20.00    +0.043 H 
ATOM     72 H72  LIG A   1      11.043   4.171   0.371  1.00 20.00    +0.118 HD
ATOM     73 H73  LIG A   1      12.022   3.176   1.207  1.00 20.00    +0.118 HD
ATOM     74 H74  LIG A   1       1.959  -0.035   1.164  1.00 20.00    +0.064 H 
ATOM     75 H75  LIG A   1      -0.312   0.282   1.953  1.00 20.00    +0.063 H 
ATOM     76 H76  LIG A   1      -5.392  -0.891  -1.535  1.00 20.00    +0.068 H 
ATOM     77 H77  LIG A   1       2.847  -0.861   0.450  1.00 20.00    +0.293 HD
ATOM     78 H78  LIG A   1       1.239  -2.324  -0.237  1.00 20.00    +0.066 H 
ATOM     79 H79  LIG A   1      -1.148  -2.559  -0.841  1.00 20.00    +0.063 H 
ATOM     80 H80  LIG A   1      -2.668  -0.591  -0.751  1.00 20.00    +0.066 H 
ATOM     81 H81  LIG A   1      -1.385   2.560   0.259  1.00 20.00    +0.293 HD
ATOM     82 H82  LIG A   1       1.633   1.959   0.822  1.00 20.00    +0.293 HD
ENDROOT
TORSDOF 0
