ROOT
ATOM      1 C1   LIG A   1      -4.558  -0.189   4.638  1.00 20.00    -0.060 C 
ATOM      2 C2   LIG A   1      -3.663  -0.440   3.410  1.00 20.00    -0.016 C 
ATOM      3 C3   LIG A   1      -4.046  -1.828   2.788  1.00 20.00    -0.023 C 
ATOM      4 C4   LIG A   1      -4.772  -1.749   1.469  1.00 20.00    -0.044 A 
ATOM      5 C5   LIG A   1      -6.085  -1.280   1.395  1.00 20.00    -0.058 A 
ATOM      6 C6   LIG A   1      -6.584  -0.816   0.180  1.00 20.00    -0.054 A 
ATOM      7 C7   LIG A   1      -5.762  -0.781  -0.962  1.00 20.00    +0.009 A 
ATOM      8 C8   LIG A   1      -4.500  -1.401  -0.906  1.00 20.00    +0.130 A 
ATOM      9 C9   LIG A   1      -4.043  -1.948   0.292  1.00 20.00    -0.016 A 
ATOM     10 O10  LIG A   1      -3.695  -1.344  -2.023  1.00 20.00    -0.464 OA
ATOM     11 C11  LIG A   1      -2.332  -1.212  -1.857  1.00 20.00    +0.104 C 
ATOM     12 C12  LIG A   1      -1.634  -0.128  -1.452  1.00 20.00    +0.082 C 
ATOM     13 C13  LIG A   1      -0.156  -0.188  -1.504  1.00 20.00    -0.010 A 
ATOM     14 C14  LIG A   1       0.545  -1.161  -0.782  1.00 20.00    -0.052 A 
ATOM     15 C15  LIG A   1       1.942  -1.228  -0.844  1.00 20.00    -0.038 A 
ATOM     16 C16  LIG A   1       2.683  -0.340  -1.635  1.00 20.00    +0.034 A 
ATOM     17 N17  LIG A   1       4.079  -0.425  -1.592  1.00 20.00    -0.385 NA
ATOM     18 C18  LIG A   1       4.886   0.336  -2.541  1.00 20.00    +0.016 C 
ATOM     19 C19  LIG A   1       6.378   0.063  -2.324  1.00 20.00    -0.023 C 
ATOM     20 C20  LIG A   1       6.943   0.682  -1.037  1.00 20.00    -0.003 C 
ATOM     21 N21  LIG A   1       6.370   0.162   0.208  1.00 20.00    -0.317 NA
ATOM     22 C22  LIG A   1       6.836  -1.176   0.574  1.00 20.00    -0.005 C 
ATOM     23 C23  LIG A   1       8.260  -1.222   1.141  1.00 20.00    -0.039 C 
ATOM     24 C24  LIG A   1       8.416  -0.695   2.574  1.00 20.00    -0.040 C 
ATOM     25 C25  LIG A   1       8.062   0.779   2.758  1.00 20.00    -0.008 C 
ATOM     26 N26  LIG A   1       8.461   1.221   4.096  1.00 20.00    -0.330 NA
ATOM     27 C27  LIG A   1       1.980   0.659  -2.313  1.00 20.00    -0.038 A 
ATOM     28 C28  LIG A   1       0.580   0.725  -2.265  1.00 20.00    -0.052 A 
ATOM     29 C29  LIG A   1      -2.331   1.162  -1.110  1.00 20.00    +0.264 C 
ATOM     30 O30  LIG A   1      -2.113   2.176  -1.774  1.00 20.00    -0.268 OA
ATOM     31 N31  LIG A   1      -3.231   1.131  -0.051  1.00 20.00    -0.277 NA
ATOM     32 C32  LIG A   1      -4.396   2.020  -0.152  1.00 20.00    +0.029 C 
ATOM     33 C33  LIG A   1      -5.021   2.310  -1.537  1.00 20.00    -0.034 C 
ATOM     34 C34  LIG A   1      -5.260   1.178  -2.555  1.00 20.00    -0.034 C 
ATOM     35 C35  LIG A   1      -6.225   0.028  -2.165  1.00 20.00    +0.085 C 
ATOM     36 C36  LIG A   1      -6.529  -0.867  -3.365  1.00 20.00    +0.311 C 
ATOM     37 O37  LIG A   1      -6.456  -2.083  -3.435  1.00 20.00    -0.252 OA
ATOM     38 O38  LIG A   1      -6.997  -0.174  -4.426  1.00 20.00    -0.481 OA
ATOM     39 C39  LIG A   1      -2.788   0.627   1.185  1.00 20.00    +0.246 C 
ATOM     40 O40  LIG A   1      -1.690   0.077   1.335  1.00 20.00    -0.273 OA
ATOM     41 C41  LIG A   1      -3.690   0.801   2.448  1.00 20.00    +0.088 C 
ATOM     42 N42  LIG A   1      -3.198   2.005   3.168  1.00 20.00    -0.320 NA
ATOM     43 O43  LIG A   1       2.431  -0.027   0.229  1.00 20.00    -0.504 OA
ATOM     44 C44  LIG A   1       1.082  -0.220   0.115  1.00 20.00    +0.161 A 
ATOM     45 C45  LIG A   1       0.516  -1.491   0.117  1.00 20.00    -0.016 A 
ATOM     46 C46  LIG A   1      -0.873  -1.623  -0.006  1.00 20.00    -0.055 A 
ATOM     47 C47  LIG A   1      -1.684  -0.490  -0.132  1.00 20.00    -0.016 A 
ATOM     48 C48  LIG A   1      -1.101   0.769  -0.134  1.00 20.00    +0.161 A 
ATOM     49 O49  LIG A   1      -1.890   1.876  -0.259  1.00 20.00    -0.504 OA
ATOM     50 C50  LIG A   1       0.275   0.906  -0.010  1.00 20.00    +0.200 A 
ATOM     51 O51  LIG A   1       0.825   2.159  -0.016  1.00 20.00    -0.502 OA
ATOM     52 H52  LIG A   1      -4.236   0.694   5.199  1.00 20.00    +0.023 H 
ATOM     53 H53  LIG A   1      -5.602  -0.041   4.345  1.00 20.00    +0.023 H 
ATOM     54 H54  LIG A   1      -4.516  -1.037   5.330  1.00 20.00    +0.023 H 
ATOM     55 H55  LIG A   1      -2.639  -0.555   3.796  1.00 20.00    +0.032 H 
ATOM     56 H56  LIG A   1      -3.120  -2.402   2.648  1.00 20.00    +0.032 H 
ATOM     57 H57  LIG A   1      -4.643  -2.428   3.485  1.00 20.00    +0.032 H 
ATOM     58 H58  LIG A   1      -6.688  -1.178   2.295  1.00 20.00    +0.063 H 
ATOM     59 H59  LIG A   1      -7.584  -0.386   0.158  1.00 20.00    +0.063 H 
ATOM     60 H60  LIG A   1      -3.042  -2.374   0.351  1.00 20.00    +0.067 H 
ATOM     61 H61  LIG A   1      -1.854  -2.122  -2.205  1.00 20.00    +0.105 H 
ATOM     62 H62  LIG A   1       0.013  -1.857  -0.137  1.00 20.00    +0.063 H 
ATOM     63 H63  LIG A   1       2.453  -1.981  -0.247  1.00 20.00    +0.064 H 
ATOM     64 H64  LIG A   1       4.383  -1.392  -1.492  1.00 20.00    +0.160 HD
ATOM     65 H65  LIG A   1       4.622   0.044  -3.565  1.00 20.00    +0.049 H 
ATOM     66 H66  LIG A   1       4.704   1.411  -2.431  1.00 20.00    +0.049 H 
ATOM     67 H67  LIG A   1       6.925   0.501  -3.169  1.00 20.00    +0.030 H 
ATOM     68 H68  LIG A   1       6.576  -1.014  -2.354  1.00 20.00    +0.030 H 
ATOM     69 H69  LIG A   1       6.745   1.760  -1.059  1.00 20.00    +0.043 H 
ATOM     70 H70  LIG A   1       8.034   0.587  -1.036  1.00 20.00    +0.043 H 
ATOM     71 H71  LIG A   1       5.349   0.125   0.079  1.00 20.00    +0.122 HD
ATOM     72 H72  LIG A   1       6.151  -1.577   1.332  1.00 20.00    +0.043 H 
ATOM     73 H73  LIG A   1       6.764  -1.857  -0.281  1.00 20.00    +0.043 H 
ATOM     74 H74  LIG A   1       8.965  -0.705   0.482  1.00 20.00    +0.028 H 
ATOM     75 H75  LIG A   1       8.578  -2.272   1.149  1.00 20.00    +0.028 H 
ATOM     76 H76  LIG A   1       9.462  -0.858   2.869  1.00 20.00    +0.028 H 
ATOM     77 H77  LIG A   1       7.807  -1.307   3.252  1.00 20.00    +0.028 H 
ATOM     78 H78  LIG A   1       8.568   1.396   2.008  1.00 20.00    +0.043 H 
ATOM     79 H79  LIG A   1       6.983   0.932   2.661  1.00 20.00    +0.043 H 
ATOM     80 H80  LIG A   1       8.236   2.211   4.194  1.00 20.00    +0.118 HD
ATOM     81 H81  LIG A   1       9.472   1.146   4.193  1.00 20.00    +0.118 HD
ATOM     82 H82  LIG A   1       2.496   1.411  -2.902  1.00 20.00    +0.064 H 
ATOM     83 H83  LIG A   1       0.078   1.510  -2.828  1.00 20.00    +0.063 H 
ATOM     84 H84  LIG A   1      -5.206   1.625   0.460  1.00 20.00    +0.050 H 
ATOM     85 H85  LIG A   1      -4.109   2.975   0.307  1.00 20.00    +0.050 H 
ATOM     86 H86  LIG A   1      -4.403   3.067  -2.037  1.00 20.00    +0.029 H 
ATOM     87 H87  LIG A   1      -5.982   2.811  -1.359  1.00 20.00    +0.029 H 
ATOM     88 H88  LIG A   1      -5.675   1.671  -3.445  1.00 20.00    +0.028 H 
ATOM     89 H89  LIG A   1      -4.303   0.788  -2.909  1.00 20.00    +0.028 H 
ATOM     90 H90  LIG A   1      -7.189   0.489  -1.909  1.00 20.00    +0.047 H 
ATOM     91 H91  LIG A   1      -7.165  -0.867  -5.097  1.00 20.00    +0.296 HD
ATOM     92 H92  LIG A   1      -4.728   0.995   2.192  1.00 20.00    +0.057 H 
ATOM     93 H93  LIG A   1      -2.246   1.810   3.494  1.00 20.00    +0.119 HD
ATOM     94 H94  LIG A   1      -3.102   2.785   2.518  1.00 20.00    +0.119 HD
ATOM     95 H95  LIG A   1       2.859  -0.901   0.263  1.00 20.00    +0.293 HD
ATOM     96 H96  LIG A   1       1.126  -2.383   0.214  1.00 20.00    +0.066 H 
ATOM     97 H97  LIG A   1      -1.327  -2.611  -0.005  1.00 20.00    +0.063 H 
ATOM     98 H98  LIG A   1      -2.762  -0.589  -0.229  1.00 20.00    +0.066 H 
ATOM     99 H99  LIG A   1      -1.262   2.626  -0.234  1.00 20.00    +0.293 HD
ATOM    100 H100 LIG A   1       1.786   1.997   0.084  1.00 20.00    +0.293 HD
ENDROOT
TORSDOF 0
