ROOT
ATOM      1 C1   LIG A   1      -3.220   0.889  -0.096  1.00 20.00    -0.048 C 
ATOM      2 C2   LIG A   1      -2.220  -0.221   0.180  1.00 20.00    +0.015 C 
ATOM      3 N3   LIG A   1      -0.868   0.266  -0.035  1.00 20.00    -0.357 NA
ATOM      4 C4   LIG A   1       0.247  -0.519   0.050  1.00 20.00    +0.195 C 
ATOM      5 N5   LIG A   1       0.247  -1.796   0.238  1.00 20.00    -0.269 NA
ATOM      6 N6   LIG A   1       1.400   0.192  -0.106  1.00 20.00    -0.298 NA
ATOM      7 C7   LIG A   1       2.704  -0.157   0.016  1.00 20.00    +0.192 C 
ATOM      8 N8   LIG A   1       3.168  -1.296   0.395  1.00 20.00    -0.269 NA
ATOM      9 N9   LIG A   1       3.578   0.831  -0.291  1.00 20.00    -0.370 NA
ATOM     10 N10  LIG A   1       5.020   1.584  -1.622  1.00 20.00    -0.330 NA
ATOM     11 C11  LIG A   1       5.932   1.080  -0.604  1.00 20.00    -0.008 C 
ATOM     12 C12  LIG A   1       5.881  -0.445  -0.496  1.00 20.00    -0.040 C 
ATOM     13 C13  LIG A   1       4.500  -1.037  -0.181  1.00 20.00    -0.039 C 
ATOM     14 C14  LIG A   1       3.906  -0.517   1.131  1.00 20.00    -0.005 C 
ATOM     15 N15  LIG A   1       2.714  -1.263   1.553  1.00 20.00    -0.317 NA
ATOM     16 C16  LIG A   1       1.547  -0.967   0.713  1.00 20.00    -0.003 C 
ATOM     17 C17  LIG A   1       0.329  -1.723   1.252  1.00 20.00    -0.023 C 
ATOM     18 C18  LIG A   1      -0.908  -1.517   0.376  1.00 20.00    +0.017 C 
ATOM     19 N19  LIG A   1      -1.384  -0.140   0.495  1.00 20.00    -0.370 NA
ATOM     20 C20  LIG A   1      -2.558   0.116  -0.219  1.00 20.00    +0.126 A 
ATOM     21 C21  LIG A   1      -2.626  -0.021  -1.598  1.00 20.00    -0.019 A 
ATOM     22 C22  LIG A   1      -3.824   0.265  -2.244  1.00 20.00    -0.049 A 
ATOM     23 C23  LIG A   1      -4.926   0.690  -1.497  1.00 20.00    +0.000 A 
ATOM     24 C24  LIG A   1      -6.160   0.992  -2.100  1.00 20.00    -0.053 A 
ATOM     25 C25  LIG A   1      -7.236   1.417  -1.324  1.00 20.00    -0.062 A 
ATOM     26 C26  LIG A   1      -7.083   1.542   0.052  1.00 20.00    -0.060 A 
ATOM     27 C27  LIG A   1      -5.854   1.241   0.646  1.00 20.00    -0.036 A 
ATOM     28 C28  LIG A   1      -4.764   0.814  -0.102  1.00 20.00    +0.073 A 
ATOM     29 N29  LIG A   1      -3.603   0.535   0.519  1.00 20.00    -0.231 NA
ATOM     30 H30  LIG A   1      -3.059   1.739   0.574  1.00 20.00    +0.025 H 
ATOM     31 H31  LIG A   1      -3.128   1.252  -1.125  1.00 20.00    +0.025 H 
ATOM     32 H32  LIG A   1      -4.242   0.526   0.051  1.00 20.00    +0.025 H 
ATOM     33 H33  LIG A   1      -2.331  -0.568   1.213  1.00 20.00    +0.049 H 
ATOM     34 H34  LIG A   1      -2.429  -1.062  -0.490  1.00 20.00    +0.049 H 
ATOM     35 H35  LIG A   1      -0.733   1.197   0.344  1.00 20.00    +0.163 HD
ATOM     36 H36  LIG A   1      -0.708  -2.143   0.312  1.00 20.00    +0.191 HD
ATOM     37 H37  LIG A   1       1.274   1.158  -0.353  1.00 20.00    +0.173 HD
ATOM     38 H38  LIG A   1       2.329  -1.888   0.557  1.00 20.00    +0.191 HD
ATOM     39 H39  LIG A   1       4.516   0.444  -0.190  1.00 20.00    +0.159 HD
ATOM     40 H40  LIG A   1       3.475   1.156  -1.245  1.00 20.00    +0.159 HD
ATOM     41 H41  LIG A   1       5.261   1.183  -2.528  1.00 20.00    +0.118 HD
ATOM     42 H42  LIG A   1       5.138   2.592  -1.715  1.00 20.00    +0.118 HD
ATOM     43 H43  LIG A   1       6.953   1.386  -0.856  1.00 20.00    +0.043 H 
ATOM     44 H44  LIG A   1       5.691   1.541   0.359  1.00 20.00    +0.043 H 
ATOM     45 H45  LIG A   1       6.239  -0.885  -1.435  1.00 20.00    +0.028 H 
ATOM     46 H46  LIG A   1       6.589  -0.761   0.281  1.00 20.00    +0.028 H 
ATOM     47 H47  LIG A   1       3.821  -0.835  -1.016  1.00 20.00    +0.028 H 
ATOM     48 H48  LIG A   1       4.608  -2.128  -0.124  1.00 20.00    +0.028 H 
ATOM     49 H49  LIG A   1       4.658  -0.631   1.922  1.00 20.00    +0.043 H 
ATOM     50 H50  LIG A   1       3.677   0.553   1.068  1.00 20.00    +0.043 H 
ATOM     51 H51  LIG A   1       2.494  -0.993   2.513  1.00 20.00    +0.122 HD
ATOM     52 H52  LIG A   1       1.348   0.111   0.713  1.00 20.00    +0.043 H 
ATOM     53 H53  LIG A   1       1.729  -1.283  -0.319  1.00 20.00    +0.043 H 
ATOM     54 H54  LIG A   1       0.554  -2.796   1.284  1.00 20.00    +0.030 H 
ATOM     55 H55  LIG A   1       0.114  -1.408   2.282  1.00 20.00    +0.030 H 
ATOM     56 H56  LIG A   1      -0.660  -1.766  -0.663  1.00 20.00    +0.049 H 
ATOM     57 H57  LIG A   1      -1.692  -2.208   0.709  1.00 20.00    +0.049 H 
ATOM     58 H58  LIG A   1      -1.650   0.073   1.458  1.00 20.00    +0.162 HD
ATOM     59 H59  LIG A   1      -1.757  -0.324  -2.169  1.00 20.00    +0.066 H 
ATOM     60 H60  LIG A   1      -3.886   0.164  -3.324  1.00 20.00    +0.063 H 
ATOM     61 H61  LIG A   1      -6.286   0.899  -3.176  1.00 20.00    +0.063 H 
ATOM     62 H62  LIG A   1      -8.189   1.651  -1.792  1.00 20.00    +0.062 H 
ATOM     63 H63  LIG A   1      -7.915   1.874   0.668  1.00 20.00    +0.062 H 
ATOM     64 H64  LIG A   1      -5.741   1.342   1.723  1.00 20.00    +0.065 H 
ENDROOT
TORSDOF 0
