ROOT
ATOM      1 C1   LIG A   1      -4.285   0.420   4.588  1.00 20.00    -0.060 C 
ATOM      2 C2   LIG A   1      -3.420   0.079   3.357  1.00 20.00    -0.016 C 
ATOM      3 C3   LIG A   1      -3.688  -1.413   2.961  1.00 20.00    -0.023 C 
ATOM      4 C4   LIG A   1      -4.475  -1.597   1.689  1.00 20.00    -0.044 A 
ATOM      5 C5   LIG A   1      -5.831  -1.275   1.626  1.00 20.00    -0.058 A 
ATOM      6 C6   LIG A   1      -6.429  -1.048   0.387  1.00 20.00    -0.054 A 
ATOM      7 C7   LIG A   1      -5.669  -1.103  -0.795  1.00 20.00    +0.009 A 
ATOM      8 C8   LIG A   1      -4.348  -1.582  -0.725  1.00 20.00    +0.130 A 
ATOM      9 C9   LIG A   1      -3.782  -1.896   0.512  1.00 20.00    -0.016 A 
ATOM     10 O10  LIG A   1      -3.604  -1.606  -1.886  1.00 20.00    -0.464 OA
ATOM     11 C11  LIG A   1      -2.251  -1.345  -1.808  1.00 20.00    +0.104 C 
ATOM     12 C12  LIG A   1      -1.635  -0.163  -1.580  1.00 20.00    +0.082 C 
ATOM     13 C13  LIG A   1      -0.151  -0.100  -1.623  1.00 20.00    -0.010 A 
ATOM     14 C14  LIG A   1       0.624  -1.094  -1.010  1.00 20.00    -0.052 A 
ATOM     15 C15  LIG A   1       2.023  -1.044  -1.045  1.00 20.00    -0.038 A 
ATOM     16 C16  LIG A   1       2.702  -0.005  -1.690  1.00 20.00    +0.034 A 
ATOM     17 N17  LIG A   1       4.096   0.006  -1.623  1.00 20.00    -0.385 NA
ATOM     18 C18  LIG A   1       4.870   1.007  -2.348  1.00 20.00    +0.016 C 
ATOM     19 C19  LIG A   1       6.371   0.808  -2.112  1.00 20.00    -0.023 C 
ATOM     20 C20  LIG A   1       6.828   1.088  -0.672  1.00 20.00    -0.003 C 
ATOM     21 N21  LIG A   1       6.263   0.204   0.353  1.00 20.00    -0.317 NA
ATOM     22 C22  LIG A   1       6.780  -1.164   0.325  1.00 20.00    -0.005 C 
ATOM     23 C23  LIG A   1       8.187  -1.326   0.909  1.00 20.00    -0.039 C 
ATOM     24 C24  LIG A   1       8.268  -1.278   2.439  1.00 20.00    -0.040 C 
ATOM     25 C25  LIG A   1       7.867   0.061   3.056  1.00 20.00    -0.008 C 
ATOM     26 N26  LIG A   1       8.203   0.064   4.483  1.00 20.00    -0.330 NA
ATOM     27 C27  LIG A   1       1.931   1.017  -2.246  1.00 20.00    -0.038 A 
ATOM     28 C28  LIG A   1       0.528   0.964  -2.231  1.00 20.00    -0.052 A 
ATOM     29 C29  LIG A   1      -2.462   1.087  -1.419  1.00 20.00    +0.264 C 
ATOM     30 O30  LIG A   1      -2.403   1.975  -2.270  1.00 20.00    -0.268 OA
ATOM     31 N31  LIG A   1      -3.297   1.156  -0.309  1.00 20.00    -0.277 NA
ATOM     32 C32  LIG A   1      -4.555   1.900  -0.469  1.00 20.00    +0.029 C 
ATOM     33 C33  LIG A   1      -5.275   1.921  -1.837  1.00 20.00    -0.034 C 
ATOM     34 C34  LIG A   1      -5.446   0.638  -2.674  1.00 20.00    -0.034 C 
ATOM     35 C35  LIG A   1      -6.267  -0.532  -2.071  1.00 20.00    +0.085 C 
ATOM     36 C36  LIG A   1      -6.528  -1.623  -3.108  1.00 20.00    +0.311 C 
ATOM     37 O37  LIG A   1      -6.380  -2.828  -2.983  1.00 20.00    -0.252 OA
ATOM     38 O38  LIG A   1      -7.058  -1.141  -4.254  1.00 20.00    -0.481 OA
ATOM     39 C39  LIG A   1      -2.749   0.895   0.961  1.00 20.00    +0.246 C 
ATOM     40 O40  LIG A   1      -1.588   0.506   1.125  1.00 20.00    -0.273 OA
ATOM     41 C41  LIG A   1      -3.614   1.158   2.235  1.00 20.00    +0.088 C 
ATOM     42 N42  LIG A   1      -3.229   2.497   2.752  1.00 20.00    -0.320 NA
ATOM     43 N43  LIG A   1       2.366   0.524   1.809  1.00 20.00    -0.287 NA
ATOM     44 C44  LIG A   1       2.833  -0.213   0.852  1.00 20.00    +0.110 C 
ATOM     45 N45  LIG A   1       3.893   0.256   0.135  1.00 20.00    -0.386 NA
ATOM     46 C46  LIG A   1       2.196  -1.557   0.494  1.00 20.00    +0.075 C 
ATOM     47 N47  LIG A   1       0.940  -1.282  -0.166  1.00 20.00    -0.348 NA
ATOM     48 C48  LIG A   1      -0.205  -1.015   0.563  1.00 20.00    +0.237 C 
ATOM     49 O49  LIG A   1      -0.270  -1.152   1.780  1.00 20.00    -0.273 OA
ATOM     50 C50  LIG A   1      -1.369  -0.547  -0.325  1.00 20.00    +0.087 C 
ATOM     51 C51  LIG A   1      -2.505   0.137   0.430  1.00 20.00    -0.027 C 
ATOM     52 C52  LIG A   1      -2.780   1.419  -0.346  1.00 20.00    -0.039 C 
ATOM     53 C53  LIG A   1      -2.084   1.212  -1.675  1.00 20.00    -0.004 C 
ATOM     54 N54  LIG A   1      -0.878   0.456  -1.317  1.00 20.00    -0.306 NA
ATOM     55 H55  LIG A   1      -4.025   1.398   5.006  1.00 20.00    +0.023 H 
ATOM     56 H56  LIG A   1      -5.349   0.431   4.333  1.00 20.00    +0.023 H 
ATOM     57 H57  LIG A   1      -4.133  -0.315   5.386  1.00 20.00    +0.023 H 
ATOM     58 H58  LIG A   1      -2.376   0.121   3.700  1.00 20.00    +0.032 H 
ATOM     59 H59  LIG A   1      -2.715  -1.913   2.856  1.00 20.00    +0.032 H 
ATOM     60 H60  LIG A   1      -4.195  -1.958   3.768  1.00 20.00    +0.032 H 
ATOM     61 H61  LIG A   1      -6.400  -1.099   2.537  1.00 20.00    +0.063 H 
ATOM     62 H62  LIG A   1      -7.468  -0.726   0.363  1.00 20.00    +0.063 H 
ATOM     63 H63  LIG A   1      -2.742  -2.210   0.571  1.00 20.00    +0.067 H 
ATOM     64 H64  LIG A   1      -1.719  -2.261  -2.038  1.00 20.00    +0.105 H 
ATOM     65 H65  LIG A   1       0.152  -1.909  -0.466  1.00 20.00    +0.063 H 
ATOM     66 H66  LIG A   1       2.584  -1.828  -0.539  1.00 20.00    +0.064 H 
ATOM     67 H67  LIG A   1       4.472  -0.937  -1.716  1.00 20.00    +0.160 HD
ATOM     68 H68  LIG A   1       4.672   0.920  -3.422  1.00 20.00    +0.049 H 
ATOM     69 H69  LIG A   1       4.590   2.017  -2.027  1.00 20.00    +0.049 H 
ATOM     70 H70  LIG A   1       6.908   1.502  -2.771  1.00 20.00    +0.030 H 
ATOM     71 H71  LIG A   1       6.670  -0.199  -2.423  1.00 20.00    +0.030 H 
ATOM     72 H72  LIG A   1       6.534   2.112  -0.414  1.00 20.00    +0.043 H 
ATOM     73 H73  LIG A   1       7.922   1.079  -0.627  1.00 20.00    +0.043 H 
ATOM     74 H74  LIG A   1       5.247   0.170   0.189  1.00 20.00    +0.122 HD
ATOM     75 H75  LIG A   1       6.093  -1.796   0.903  1.00 20.00    +0.043 H 
ATOM     76 H76  LIG A   1       6.758  -1.566  -0.693  1.00 20.00    +0.043 H 
ATOM     77 H77  LIG A   1       8.879  -0.593   0.480  1.00 20.00    +0.028 H 
ATOM     78 H78  LIG A   1       8.563  -2.308   0.593  1.00 20.00    +0.028 H 
ATOM     79 H79  LIG A   1       9.302  -1.514   2.720  1.00 20.00    +0.028 H 
ATOM     80 H80  LIG A   1       7.646  -2.078   2.859  1.00 20.00    +0.028 H 
ATOM     81 H81  LIG A   1       8.390   0.886   2.563  1.00 20.00    +0.043 H 
ATOM     82 H82  LIG A   1       6.789   0.225   2.964  1.00 20.00    +0.043 H 
ATOM     83 H83  LIG A   1       7.969   0.975   4.879  1.00 20.00    +0.118 HD
ATOM     84 H84  LIG A   1       9.212  -0.042   4.586  1.00 20.00    +0.118 HD
ATOM     85 H85  LIG A   1       2.395   1.878  -2.717  1.00 20.00    +0.064 H 
ATOM     86 H86  LIG A   1      -0.018   1.776  -2.706  1.00 20.00    +0.063 H 
ATOM     87 H87  LIG A   1      -5.287   1.523   0.244  1.00 20.00    +0.050 H 
ATOM     88 H88  LIG A   1      -4.350   2.936  -0.168  1.00 20.00    +0.050 H 
ATOM     89 H89  LIG A   1      -4.767   2.657  -2.475  1.00 20.00    +0.029 H 
ATOM     90 H90  LIG A   1      -6.273   2.347  -1.671  1.00 20.00    +0.029 H 
ATOM     91 H91  LIG A   1      -5.961   0.961  -3.588  1.00 20.00    +0.028 H 
ATOM     92 H92  LIG A   1      -4.475   0.294  -3.037  1.00 20.00    +0.028 H 
ATOM     93 H93  LIG A   1      -7.261  -0.136  -1.826  1.00 20.00    +0.047 H 
ATOM     94 H94  LIG A   1      -7.193  -1.942  -4.803  1.00 20.00    +0.296 HD
ATOM     95 H95  LIG A   1      -4.677   1.203   2.012  1.00 20.00    +0.057 H 
ATOM     96 H96  LIG A   1      -2.247   2.449   3.039  1.00 20.00    +0.119 HD
ATOM     97 H97  LIG A   1      -3.243   3.182   1.994  1.00 20.00    +0.119 HD
ATOM     98 H98  LIG A   1       1.541   0.054   2.225  1.00 20.00    +0.189 HD
ATOM     99 H99  LIG A   1       4.335   1.044   0.601  1.00 20.00    +0.157 HD
ATOM    100 H100 LIG A   1       4.563  -0.437  -0.181  1.00 20.00    +0.157 HD
ATOM    101 H101 LIG A   1       2.834  -2.105  -0.202  1.00 20.00    +0.058 H 
ATOM    102 H102 LIG A   1       2.036  -2.148   1.398  1.00 20.00    +0.058 H 
ATOM    103 H103 LIG A   1       0.958  -0.857  -1.091  1.00 20.00    +0.163 HD
ATOM    104 H104 LIG A   1      -1.749  -1.426  -0.860  1.00 20.00    +0.057 H 
ATOM    105 H105 LIG A   1      -3.396  -0.500   0.426  1.00 20.00    +0.029 H 
ATOM    106 H106 LIG A   1      -2.270   0.371   1.473  1.00 20.00    +0.029 H 
ATOM    107 H107 LIG A   1      -2.340   2.272   0.185  1.00 20.00    +0.028 H 
ATOM    108 H108 LIG A   1      -3.851   1.610  -0.463  1.00 20.00    +0.028 H 
ATOM    109 H109 LIG A   1      -2.705   0.624  -2.362  1.00 20.00    +0.043 H 
ATOM    110 H110 LIG A   1      -1.836   2.160  -2.161  1.00 20.00    +0.043 H 
ATOM    111 H111 LIG A   1      -0.259   1.101  -0.814  1.00 20.00    +0.123 HD
ENDROOT
TORSDOF 0
