ROOT
ATOM      1 N1   LIG A   1     -10.766   1.233   0.529  1.00 20.00    -0.289 NA
ATOM      2 C2   LIG A   1     -11.194   0.014   0.469  1.00 20.00    +0.092 C 
ATOM      3 N3   LIG A   1     -12.473  -0.243   0.853  1.00 20.00    -0.388 NA
ATOM      4 C4   LIG A   1     -10.298  -1.122   0.020  1.00 20.00    +0.022 C 
ATOM      5 C5   LIG A   1      -9.729  -0.862  -1.373  1.00 20.00    +0.022 C 
ATOM      6 N6   LIG A   1      -8.702   0.184  -1.345  1.00 20.00    -0.384 NA
ATOM      7 C7   LIG A   1      -7.349  -0.113  -1.173  1.00 20.00    +0.038 A 
ATOM      8 C8   LIG A   1      -6.875  -1.318  -0.639  1.00 20.00    -0.038 A 
ATOM      9 C9   LIG A   1      -5.508  -1.528  -0.420  1.00 20.00    -0.045 A 
ATOM     10 C10  LIG A   1      -4.595  -0.514  -0.709  1.00 20.00    +0.065 A 
ATOM     11 C11  LIG A   1      -3.151  -0.710  -0.485  1.00 20.00    +0.200 C 
ATOM     12 O12  LIG A   1      -2.728  -1.773  -0.047  1.00 20.00    -0.288 OA
ATOM     13 C13  LIG A   1      -2.264   0.441  -0.822  1.00 20.00    +0.065 C 
ATOM     14 C14  LIG A   1      -0.802   0.393  -0.635  1.00 20.00    -0.011 A 
ATOM     15 C15  LIG A   1       0.073   0.790  -1.653  1.00 20.00    -0.052 A 
ATOM     16 C16  LIG A   1       1.459   0.750  -1.457  1.00 20.00    -0.038 A 
ATOM     17 C17  LIG A   1       2.018   0.287  -0.259  1.00 20.00    +0.034 A 
ATOM     18 N18  LIG A   1       3.408   0.340  -0.110  1.00 20.00    -0.385 NA
ATOM     19 C19  LIG A   1       4.048  -0.407   0.968  1.00 20.00    +0.016 C 
ATOM     20 C20  LIG A   1       5.571  -0.272   0.883  1.00 20.00    -0.023 C 
ATOM     21 C21  LIG A   1       6.041   1.151   1.201  1.00 20.00    -0.003 C 
ATOM     22 N22  LIG A   1       7.502   1.284   1.253  1.00 20.00    -0.317 NA
ATOM     23 C23  LIG A   1       8.119   1.229  -0.072  1.00 20.00    -0.005 C 
ATOM     24 C24  LIG A   1       9.610   1.575  -0.006  1.00 20.00    -0.039 C 
ATOM     25 C25  LIG A   1      10.481   0.769   0.968  1.00 20.00    -0.040 C 
ATOM     26 C26  LIG A   1      10.395  -0.751   0.823  1.00 20.00    -0.008 C 
ATOM     27 N27  LIG A   1       9.248  -1.306   1.539  1.00 20.00    -0.330 NA
ATOM     28 C28  LIG A   1       1.137  -0.074   0.764  1.00 20.00    -0.038 A 
ATOM     29 C29  LIG A   1      -0.252  -0.039   0.576  1.00 20.00    -0.052 A 
ATOM     30 C30  LIG A   1      -2.859   1.554  -1.279  1.00 20.00    +0.103 C 
ATOM     31 O31  LIG A   1      -4.204   1.744  -1.490  1.00 20.00    -0.463 OA
ATOM     32 C32  LIG A   1      -5.046   0.701  -1.203  1.00 20.00    +0.139 A 
ATOM     33 C33  LIG A   1      -6.412   0.903  -1.421  1.00 20.00    +0.005 A 
ATOM     34 N34  LIG A   1       3.185   1.362   0.256  1.00 20.00    -0.287 NA
ATOM     35 C35  LIG A   1       3.384   0.081   0.219  1.00 20.00    +0.110 C 
ATOM     36 N36  LIG A   1       4.597  -0.374  -0.196  1.00 20.00    -0.386 NA
ATOM     37 C37  LIG A   1       2.294  -0.901   0.647  1.00 20.00    +0.075 C 
ATOM     38 N38  LIG A   1       1.033  -0.463   0.093  1.00 20.00    -0.348 NA
ATOM     39 C39  LIG A   1      -0.164  -0.976   0.542  1.00 20.00    +0.237 C 
ATOM     40 O40  LIG A   1      -0.250  -1.723   1.512  1.00 20.00    -0.273 OA
ATOM     41 C41  LIG A   1      -1.365  -0.576  -0.332  1.00 20.00    +0.087 C 
ATOM     42 C42  LIG A   1      -2.691  -0.530   0.421  1.00 20.00    -0.027 C 
ATOM     43 C43  LIG A   1      -3.317   0.804   0.038  1.00 20.00    -0.039 C 
ATOM     44 C44  LIG A   1      -2.542   1.243  -1.188  1.00 20.00    -0.004 C 
ATOM     45 N45  LIG A   1      -1.176   0.783  -0.915  1.00 20.00    -0.306 NA
ATOM     46 H46  LIG A   1      -9.783   1.249   0.201  1.00 20.00    +0.189 HD
ATOM     47 H47  LIG A   1     -12.871   0.551   1.347  1.00 20.00    +0.157 HD
ATOM     48 H48  LIG A   1     -12.637  -1.122   1.327  1.00 20.00    +0.157 HD
ATOM     49 H49  LIG A   1      -9.509  -1.245   0.769  1.00 20.00    +0.037 H 
ATOM     50 H50  LIG A   1     -10.888  -2.045   0.001  1.00 20.00    +0.037 H 
ATOM     51 H51  LIG A   1     -10.536  -0.525  -2.036  1.00 20.00    +0.049 H 
ATOM     52 H52  LIG A   1      -9.339  -1.787  -1.814  1.00 20.00    +0.049 H 
ATOM     53 H53  LIG A   1      -8.852   0.889  -2.067  1.00 20.00    +0.160 HD
ATOM     54 H54  LIG A   1      -7.555  -2.124  -0.381  1.00 20.00    +0.064 H 
ATOM     55 H55  LIG A   1      -5.165  -2.478  -0.016  1.00 20.00    +0.063 H 
ATOM     56 H56  LIG A   1      -0.308   1.133  -2.612  1.00 20.00    +0.063 H 
ATOM     57 H57  LIG A   1       2.107   1.088  -2.263  1.00 20.00    +0.064 H 
ATOM     58 H58  LIG A   1       3.876   0.223  -1.007  1.00 20.00    +0.160 HD
ATOM     59 H59  LIG A   1       3.711  -0.045   1.947  1.00 20.00    +0.049 H 
ATOM     60 H60  LIG A   1       3.787  -1.469   0.885  1.00 20.00    +0.049 H 
ATOM     61 H61  LIG A   1       5.909  -0.577  -0.114  1.00 20.00    +0.030 H 
ATOM     62 H62  LIG A   1       6.018  -0.970   1.602  1.00 20.00    +0.030 H 
ATOM     63 H63  LIG A   1       5.658   1.435   2.189  1.00 20.00    +0.043 H 
ATOM     64 H64  LIG A   1       5.622   1.874   0.492  1.00 20.00    +0.043 H 
ATOM     65 H65  LIG A   1       7.888   0.498   1.787  1.00 20.00    +0.122 HD
ATOM     66 H66  LIG A   1       7.995   0.238  -0.523  1.00 20.00    +0.043 H 
ATOM     67 H67  LIG A   1       7.637   1.951  -0.741  1.00 20.00    +0.043 H 
ATOM     68 H68  LIG A   1      10.025   1.462  -1.016  1.00 20.00    +0.028 H 
ATOM     69 H69  LIG A   1       9.717   2.638   0.246  1.00 20.00    +0.028 H 
ATOM     70 H70  LIG A   1      10.261   1.066   2.001  1.00 20.00    +0.028 H 
ATOM     71 H71  LIG A   1      11.523   1.067   0.793  1.00 20.00    +0.028 H 
ATOM     72 H72  LIG A   1      10.343  -1.032  -0.234  1.00 20.00    +0.043 H 
ATOM     73 H73  LIG A   1      11.304  -1.203   1.235  1.00 20.00    +0.043 H 
ATOM     74 H74  LIG A   1       9.388  -1.167   2.541  1.00 20.00    +0.118 HD
ATOM     75 H75  LIG A   1       9.235  -2.318   1.404  1.00 20.00    +0.118 HD
ATOM     76 H76  LIG A   1       1.504  -0.398   1.733  1.00 20.00    +0.064 H 
ATOM     77 H77  LIG A   1      -0.897  -0.351   1.395  1.00 20.00    +0.063 H 
ATOM     78 H78  LIG A   1      -2.327   2.463  -1.533  1.00 20.00    +0.105 H 
ATOM     79 H79  LIG A   1      -6.745   1.872  -1.786  1.00 20.00    +0.068 H 
ATOM     80 H80  LIG A   1       2.227   1.534   0.589  1.00 20.00    +0.189 HD
ATOM     81 H81  LIG A   1       5.292   0.367  -0.217  1.00 20.00    +0.157 HD
ATOM     82 H82  LIG A   1       4.936  -1.237   0.212  1.00 20.00    +0.157 HD
ATOM     83 H83  LIG A   1       2.512  -1.905   0.272  1.00 20.00    +0.058 H 
ATOM     84 H84  LIG A   1       2.235  -0.924   1.739  1.00 20.00    +0.058 H 
ATOM     85 H85  LIG A   1       1.019  -0.016  -0.823  1.00 20.00    +0.163 HD
ATOM     86 H86  LIG A   1      -1.422  -1.304  -1.151  1.00 20.00    +0.057 H 
ATOM     87 H87  LIG A   1      -3.336  -1.353   0.092  1.00 20.00    +0.029 H 
ATOM     88 H88  LIG A   1      -2.586  -0.602   1.508  1.00 20.00    +0.029 H 
ATOM     89 H89  LIG A   1      -3.177   1.525   0.853  1.00 20.00    +0.028 H 
ATOM     90 H90  LIG A   1      -4.390   0.718  -0.156  1.00 20.00    +0.028 H 
ATOM     91 H91  LIG A   1      -2.926   0.759  -2.094  1.00 20.00    +0.043 H 
ATOM     92 H92  LIG A   1      -2.580   2.326  -1.336  1.00 20.00    +0.043 H 
ATOM     93 H93  LIG A   1      -0.794   1.381  -0.177  1.00 20.00    +0.123 HD
ENDROOT
TORSDOF 0
