ROOT
ATOM      1 C1   LIG A   1      -3.214   0.913  -0.016  1.00 20.00    -0.048 C 
ATOM      2 C2   LIG A   1      -2.221  -0.222   0.169  1.00 20.00    +0.015 C 
ATOM      3 N3   LIG A   1      -0.866   0.273  -0.011  1.00 20.00    -0.357 NA
ATOM      4 C4   LIG A   1       0.244  -0.523   0.008  1.00 20.00    +0.195 C 
ATOM      5 N5   LIG A   1       0.236  -1.810   0.093  1.00 20.00    -0.269 NA
ATOM      6 N6   LIG A   1       1.401   0.191  -0.093  1.00 20.00    -0.298 NA
ATOM      7 C7   LIG A   1       2.704  -0.174  -0.004  1.00 20.00    +0.192 C 
ATOM      8 N8   LIG A   1       3.161  -1.343   0.279  1.00 20.00    -0.269 NA
ATOM      9 N9   LIG A   1       3.583   0.830  -0.233  1.00 20.00    -0.370 NA
ATOM     10 N10  LIG A   1     -12.007   0.466   0.385  1.00 20.00    -0.289 NA
ATOM     11 C11  LIG A   1     -10.726   0.368   0.250  1.00 20.00    +0.092 C 
ATOM     12 N12  LIG A   1      -9.951   1.415   0.644  1.00 20.00    -0.388 NA
ATOM     13 C13  LIG A   1     -10.075  -0.868  -0.331  1.00 20.00    +0.022 C 
ATOM     14 C14  LIG A   1      -9.769  -0.675  -1.814  1.00 20.00    +0.022 C 
ATOM     15 N15  LIG A   1      -8.681   0.277  -2.044  1.00 20.00    -0.384 NA
ATOM     16 C16  LIG A   1      -7.354  -0.018  -1.739  1.00 20.00    +0.038 A 
ATOM     17 C17  LIG A   1      -6.850  -1.322  -1.648  1.00 20.00    -0.038 A 
ATOM     18 C18  LIG A   1      -5.492  -1.560  -1.402  1.00 20.00    -0.045 A 
ATOM     19 C19  LIG A   1      -4.612  -0.487  -1.274  1.00 20.00    +0.065 A 
ATOM     20 C20  LIG A   1      -3.178  -0.710  -1.016  1.00 20.00    +0.200 C 
ATOM     21 O21  LIG A   1      -2.741  -1.847  -0.878  1.00 20.00    -0.288 OA
ATOM     22 C22  LIG A   1      -2.318   0.505  -0.936  1.00 20.00    +0.065 C 
ATOM     23 C23  LIG A   1      -0.868   0.434  -0.679  1.00 20.00    -0.011 A 
ATOM     24 C24  LIG A   1       0.045   1.136  -1.474  1.00 20.00    -0.052 A 
ATOM     25 C25  LIG A   1       1.419   1.068  -1.212  1.00 20.00    -0.038 A 
ATOM     26 C26  LIG A   1       1.929   0.278  -0.173  1.00 20.00    +0.034 A 
ATOM     27 N27  LIG A   1       3.306   0.312   0.072  1.00 20.00    -0.385 NA
ATOM     28 C28  LIG A   1       3.914  -0.715   0.914  1.00 20.00    +0.016 C 
ATOM     29 C29  LIG A   1       5.434  -0.537   0.963  1.00 20.00    -0.023 C 
ATOM     30 C30  LIG A   1       5.841   0.733   1.718  1.00 20.00    -0.003 C 
ATOM     31 N31  LIG A   1       7.292   0.866   1.894  1.00 20.00    -0.317 NA
ATOM     32 C32  LIG A   1       7.980   1.214   0.652  1.00 20.00    -0.005 C 
ATOM     33 C33  LIG A   1       9.454   1.547   0.906  1.00 20.00    -0.039 C 
ATOM     34 C34  LIG A   1      10.297   0.501   1.649  1.00 20.00    -0.040 C 
ATOM     35 C35  LIG A   1      10.266  -0.909   1.058  1.00 20.00    -0.008 C 
ATOM     36 N36  LIG A   1       9.100  -1.667   1.510  1.00 20.00    -0.330 NA
ATOM     37 C37  LIG A   1       1.009  -0.393   0.637  1.00 20.00    -0.038 A 
ATOM     38 C38  LIG A   1      -0.368  -0.330   0.380  1.00 20.00    -0.052 A 
ATOM     39 C39  LIG A   1      -2.930   1.693  -1.077  1.00 20.00    +0.103 C 
ATOM     40 O40  LIG A   1      -4.268   1.910  -1.305  1.00 20.00    -0.463 OA
ATOM     41 C41  LIG A   1      -5.083   0.812  -1.403  1.00 20.00    +0.139 A 
ATOM     42 C42  LIG A   1      -6.440   1.043  -1.645  1.00 20.00    +0.005 A 
ATOM     43 H43  LIG A   1      -3.047   1.708   0.718  1.00 20.00    +0.025 H 
ATOM     44 H44  LIG A   1      -3.124   1.354  -1.014  1.00 20.00    +0.025 H 
ATOM     45 H45  LIG A   1      -4.239   0.546   0.105  1.00 20.00    +0.025 H 
ATOM     46 H46  LIG A   1      -2.331  -0.647   1.173  1.00 20.00    +0.049 H 
ATOM     47 H47  LIG A   1      -2.437  -1.006  -0.565  1.00 20.00    +0.049 H 
ATOM     48 H48  LIG A   1      -0.725   1.171   0.440  1.00 20.00    +0.163 HD
ATOM     49 H49  LIG A   1      -0.721  -2.157   0.141  1.00 20.00    +0.191 HD
ATOM     50 H50  LIG A   1       1.280   1.175  -0.260  1.00 20.00    +0.173 HD
ATOM     51 H51  LIG A   1       2.318  -1.941   0.394  1.00 20.00    +0.191 HD
ATOM     52 H52  LIG A   1       4.518   0.431  -0.166  1.00 20.00    +0.159 HD
ATOM     53 H53  LIG A   1       3.479   1.232  -1.157  1.00 20.00    +0.159 HD
ATOM     54 H54  LIG A   1     -12.481  -0.380   0.054  1.00 20.00    +0.189 HD
ATOM     55 H55  LIG A   1     -10.456   2.057   1.248  1.00 20.00    +0.157 HD
ATOM     56 H56  LIG A   1      -9.017   1.195   0.972  1.00 20.00    +0.157 HD
ATOM     57 H57  LIG A   1      -9.172  -1.097   0.245  1.00 20.00    +0.037 H 
ATOM     58 H58  LIG A   1     -10.762  -1.714  -0.210  1.00 20.00    +0.037 H 
ATOM     59 H59  LIG A   1     -10.660  -0.286  -2.324  1.00 20.00    +0.049 H 
ATOM     60 H60  LIG A   1      -9.550  -1.637  -2.289  1.00 20.00    +0.049 H 
ATOM     61 H61  LIG A   1      -8.949   1.224  -1.767  1.00 20.00    +0.160 HD
ATOM     62 H62  LIG A   1      -7.498  -2.184  -1.772  1.00 20.00    +0.064 H 
ATOM     63 H63  LIG A   1      -5.128  -2.583  -1.326  1.00 20.00    +0.063 H 
ATOM     64 H64  LIG A   1      -0.295   1.743  -2.309  1.00 20.00    +0.063 H 
ATOM     65 H65  LIG A   1       2.097   1.645  -1.837  1.00 20.00    +0.064 H 
ATOM     66 H66  LIG A   1       3.826   0.480  -0.786  1.00 20.00    +0.160 HD
ATOM     67 H67  LIG A   1       3.515  -0.669   1.934  1.00 20.00    +0.049 H 
ATOM     68 H68  LIG A   1       3.693  -1.707   0.502  1.00 20.00    +0.049 H 
ATOM     69 H69  LIG A   1       5.833  -0.523  -0.058  1.00 20.00    +0.030 H 
ATOM     70 H70  LIG A   1       5.865  -1.411   1.466  1.00 20.00    +0.030 H 
ATOM     71 H71  LIG A   1       5.397   0.703   2.720  1.00 20.00    +0.043 H 
ATOM     72 H72  LIG A   1       5.437   1.629   1.232  1.00 20.00    +0.043 H 
ATOM     73 H73  LIG A   1       7.674  -0.037   2.196  1.00 20.00    +0.122 HD
ATOM     74 H74  LIG A   1       7.911   0.401  -0.078  1.00 20.00    +0.043 H 
ATOM     75 H75  LIG A   1       7.511   2.096   0.198  1.00 20.00    +0.043 H 
ATOM     76 H76  LIG A   1       9.925   1.745  -0.066  1.00 20.00    +0.028 H 
ATOM     77 H77  LIG A   1       9.514   2.489   1.467  1.00 20.00    +0.028 H 
ATOM     78 H78  LIG A   1      10.015   0.476   2.709  1.00 20.00    +0.028 H 
ATOM     79 H79  LIG A   1      11.338   0.852   1.632  1.00 20.00    +0.028 H 
ATOM     80 H80  LIG A   1      10.278  -0.865  -0.036  1.00 20.00    +0.043 H 
ATOM     81 H81  LIG A   1      11.165  -1.450   1.372  1.00 20.00    +0.043 H 
ATOM     82 H82  LIG A   1       9.184  -1.828   2.515  1.00 20.00    +0.118 HD
ATOM     83 H83  LIG A   1       9.127  -2.594   1.083  1.00 20.00    +0.118 HD
ATOM     84 H84  LIG A   1       1.335  -0.985   1.486  1.00 20.00    +0.064 H 
ATOM     85 H85  LIG A   1      -1.045  -0.889   1.025  1.00 20.00    +0.063 H 
ATOM     86 H86  LIG A   1      -2.420   2.647  -1.014  1.00 20.00    +0.105 H 
ATOM     87 H87  LIG A   1      -6.784   2.068  -1.766  1.00 20.00    +0.068 H 
ENDROOT
TORSDOF 0
