ROOT
ATOM      1 C1   LIG A   1      -2.405  -1.141   0.852  1.00 20.00    -0.044 C 
ATOM      2 C2   LIG A   1      -1.208  -0.538   0.060  1.00 20.00    +0.047 C 
ATOM      3 C3   LIG A   1      -1.313  -1.069  -1.391  1.00 20.00    -0.044 C 
ATOM      4 C4   LIG A   1      -1.437   1.005   0.060  1.00 20.00    -0.006 C 
ATOM      5 C5   LIG A   1      -0.158   1.831   0.193  1.00 20.00    +0.058 C 
ATOM      6 O6   LIG A   1      -0.364   3.131  -0.379  1.00 20.00    -0.393 OA
ATOM      7 C7   LIG A   1       1.012   1.150  -0.491  1.00 20.00    -0.006 C 
ATOM      8 C8   LIG A   1       1.320  -0.221   0.168  1.00 20.00    +0.047 C 
ATOM      9 C9   LIG A   1       2.093  -1.068  -0.878  1.00 20.00    -0.044 C 
ATOM     10 C10  LIG A   1       2.283   0.032   1.359  1.00 20.00    -0.044 C 
ATOM     11 N11  LIG A   1       0.079  -0.818   0.733  1.00 20.00    -0.144 NA
ATOM     12 O12  LIG A   1       0.253  -2.224   0.959  1.00 20.00    -0.120 OA
ATOM     13 C13  LIG A   1       9.400  -0.683   0.263  1.00 20.00    -0.060 C 
ATOM     14 C14  LIG A   1       7.952  -1.190   0.121  1.00 20.00    -0.016 C 
ATOM     15 C15  LIG A   1       7.527  -1.720   1.534  1.00 20.00    -0.023 C 
ATOM     16 C16  LIG A   1       6.054  -1.980   1.675  1.00 20.00    -0.048 A 
ATOM     17 C17  LIG A   1       5.260  -1.080   2.390  1.00 20.00    -0.058 A 
ATOM     18 C18  LIG A   1       3.902  -0.997   2.106  1.00 20.00    -0.051 A 
ATOM     19 C19  LIG A   1       3.373  -1.766   1.067  1.00 20.00    +0.017 A 
ATOM     20 C20  LIG A   1       4.098  -2.869   0.599  1.00 20.00    -0.051 A 
ATOM     21 C21  LIG A   1       5.447  -2.984   0.917  1.00 20.00    -0.058 A 
ATOM     22 C22  LIG A   1       2.210  -1.273   0.303  1.00 20.00    +0.140 C 
ATOM     23 C23  LIG A   1       2.278  -1.051  -1.030  1.00 20.00    +0.047 C 
ATOM     24 C24  LIG A   1       3.503  -0.900  -1.882  1.00 20.00    +0.256 C 
ATOM     25 O25  LIG A   1       3.393  -1.077  -3.093  1.00 20.00    -0.269 OA
ATOM     26 N26  LIG A   1       4.529  -0.172  -1.290  1.00 20.00    -0.278 NA
ATOM     27 C27  LIG A   1       4.449   1.289  -1.445  1.00 20.00    +0.029 C 
ATOM     28 C28  LIG A   1       3.088   1.960  -1.136  1.00 20.00    -0.034 C 
ATOM     29 C29  LIG A   1       2.776   1.981   0.363  1.00 20.00    -0.034 C 
ATOM     30 C30  LIG A   1       1.304   2.234   0.744  1.00 20.00    +0.085 C 
ATOM     31 C31  LIG A   1       1.229   2.414   2.255  1.00 20.00    +0.311 C 
ATOM     32 O32  LIG A   1       1.432   1.573   3.114  1.00 20.00    -0.252 OA
ATOM     33 O33  LIG A   1       0.931   3.683   2.613  1.00 20.00    -0.481 OA
ATOM     34 C34  LIG A   1       0.215   1.275   0.269  1.00 20.00    +0.009 A 
ATOM     35 C35  LIG A   1      -0.875   1.846  -0.416  1.00 20.00    -0.052 A 
ATOM     36 C36  LIG A   1      -1.981   1.084  -0.823  1.00 20.00    -0.038 A 
ATOM     37 C37  LIG A   1      -2.075  -0.274  -0.526  1.00 20.00    +0.038 A 
ATOM     38 N38  LIG A   1      -3.113  -1.098  -0.954  1.00 20.00    -0.385 NA
ATOM     39 C39  LIG A   1      -4.408  -0.573  -1.372  1.00 20.00    +0.016 C 
ATOM     40 C40  LIG A   1      -5.243  -0.125  -0.172  1.00 20.00    -0.023 C 
ATOM     41 C41  LIG A   1      -6.613   0.381  -0.628  1.00 20.00    -0.003 C 
ATOM     42 N42  LIG A   1      -7.416   0.759   0.535  1.00 20.00    -0.317 NA
ATOM     43 C43  LIG A   1      -8.736   1.272   0.162  1.00 20.00    -0.005 C 
ATOM     44 C44  LIG A   1      -9.853   0.319   0.597  1.00 20.00    -0.039 C 
ATOM     45 C45  LIG A   1      -9.893  -1.031  -0.132  1.00 20.00    -0.040 C 
ATOM     46 C46  LIG A   1     -10.111  -0.953  -1.646  1.00 20.00    -0.008 C 
ATOM     47 N47  LIG A   1     -11.383  -0.339  -2.011  1.00 20.00    -0.330 NA
ATOM     48 C48  LIG A   1      -0.983  -0.858   0.123  1.00 20.00    +0.004 A 
ATOM     49 C49  LIG A   1       0.146  -0.110   0.505  1.00 20.00    +0.133 A 
ATOM     50 O50  LIG A   1       1.148  -0.844   1.105  1.00 20.00    -0.456 OA
ATOM     51 C51  LIG A   1       5.774  -0.818  -1.284  1.00 20.00    +0.246 C 
ATOM     52 O52  LIG A   1       5.950  -1.910  -1.837  1.00 20.00    -0.273 OA
ATOM     53 C53  LIG A   1       6.973  -0.124  -0.525  1.00 20.00    +0.088 C 
ATOM     54 N54  LIG A   1       7.689   0.708  -1.521  1.00 20.00    -0.320 NA
ATOM     55 H55  LIG A   1      -3.360  -0.787   0.444  1.00 20.00    +0.025 H 
ATOM     56 H56  LIG A   1      -2.372  -0.847   1.908  1.00 20.00    +0.025 H 
ATOM     57 H57  LIG A   1      -2.427  -2.236   0.805  1.00 20.00    +0.025 H 
ATOM     58 H58  LIG A   1      -1.131  -2.148  -1.446  1.00 20.00    +0.025 H 
ATOM     59 H59  LIG A   1      -2.319  -0.896  -1.793  1.00 20.00    +0.025 H 
ATOM     60 H60  LIG A   1      -0.619  -0.574  -2.073  1.00 20.00    +0.025 H 
ATOM     61 H61  LIG A   1      -1.980   1.307  -0.846  1.00 20.00    +0.031 H 
ATOM     62 H62  LIG A   1      -2.091   1.304   0.891  1.00 20.00    +0.031 H 
ATOM     63 H63  LIG A   1       0.073   1.991   1.253  1.00 20.00    +0.060 H 
ATOM     64 H64  LIG A   1      -1.126   3.506   0.094  1.00 20.00    +0.210 HD
ATOM     65 H65  LIG A   1       0.781   1.042  -1.559  1.00 20.00    +0.031 H 
ATOM     66 H66  LIG A   1       1.890   1.809  -0.463  1.00 20.00    +0.031 H 
ATOM     67 H67  LIG A   1       2.945  -0.502  -1.276  1.00 20.00    +0.025 H 
ATOM     68 H68  LIG A   1       2.503  -1.988  -0.447  1.00 20.00    +0.025 H 
ATOM     69 H69  LIG A   1       1.467  -1.347  -1.730  1.00 20.00    +0.025 H 
ATOM     70 H70  LIG A   1       3.192   0.548   1.029  1.00 20.00    +0.025 H 
ATOM     71 H71  LIG A   1       2.601  -0.904   1.833  1.00 20.00    +0.025 H 
ATOM     72 H72  LIG A   1       1.817   0.653   2.133  1.00 20.00    +0.025 H 
ATOM     73 H73  LIG A   1       9.861  -0.501  -0.714  1.00 20.00    +0.023 H 
ATOM     74 H74  LIG A   1      10.025  -1.427   0.771  1.00 20.00    +0.023 H 
ATOM     75 H75  LIG A   1       9.439   0.244   0.848  1.00 20.00    +0.023 H 
ATOM     76 H76  LIG A   1       7.999  -2.062  -0.547  1.00 20.00    +0.032 H 
ATOM     77 H77  LIG A   1       7.841  -1.002   2.302  1.00 20.00    +0.032 H 
ATOM     78 H78  LIG A   1       8.072  -2.647   1.753  1.00 20.00    +0.032 H 
ATOM     79 H79  LIG A   1       5.704  -0.350   3.062  1.00 20.00    +0.063 H 
ATOM     80 H80  LIG A   1       3.312  -0.218   2.583  1.00 20.00    +0.063 H 
ATOM     81 H81  LIG A   1       3.683  -3.533  -0.157  1.00 20.00    +0.063 H 
ATOM     82 H82  LIG A   1       6.048  -3.729   0.397  1.00 20.00    +0.063 H 
ATOM     83 H83  LIG A   1       1.398  -0.760  -1.595  1.00 20.00    +0.072 H 
ATOM     84 H84  LIG A   1       4.703   1.502  -2.492  1.00 20.00    +0.050 H 
ATOM     85 H85  LIG A   1       5.212   1.771  -0.830  1.00 20.00    +0.050 H 
ATOM     86 H86  LIG A   1       2.284   1.496  -1.712  1.00 20.00    +0.029 H 
ATOM     87 H87  LIG A   1       3.134   3.000  -1.485  1.00 20.00    +0.029 H 
ATOM     88 H88  LIG A   1       3.129   1.073   0.832  1.00 20.00    +0.028 H 
ATOM     89 H89  LIG A   1       3.393   2.769   0.818  1.00 20.00    +0.028 H 
ATOM     90 H90  LIG A   1       1.075   3.220   0.312  1.00 20.00    +0.047 H 
ATOM     91 H91  LIG A   1       0.892   3.645   3.593  1.00 20.00    +0.296 HD
ATOM     92 H92  LIG A   1      -0.887   2.912  -0.645  1.00 20.00    +0.063 H 
ATOM     93 H93  LIG A   1      -2.769   1.593  -1.370  1.00 20.00    +0.064 H 
ATOM     94 H94  LIG A   1      -3.195  -1.944  -0.394  1.00 20.00    +0.160 HD
ATOM     95 H95  LIG A   1      -4.937  -1.383  -1.889  1.00 20.00    +0.049 H 
ATOM     96 H96  LIG A   1      -4.299   0.229  -2.110  1.00 20.00    +0.049 H 
ATOM     97 H97  LIG A   1      -4.721   0.666   0.380  1.00 20.00    +0.030 H 
ATOM     98 H98  LIG A   1      -5.365  -0.967   0.523  1.00 20.00    +0.030 H 
ATOM     99 H99  LIG A   1      -6.479   1.241  -1.294  1.00 20.00    +0.043 H 
ATOM    100 H100 LIG A   1      -7.116  -0.411  -1.193  1.00 20.00    +0.043 H 
ATOM    101 H101 LIG A   1      -6.916   1.476   1.062  1.00 20.00    +0.122 HD
ATOM    102 H102 LIG A   1      -8.810   1.515  -0.905  1.00 20.00    +0.043 H 
ATOM    103 H103 LIG A   1      -8.889   2.221   0.690  1.00 20.00    +0.043 H 
ATOM    104 H104 LIG A   1     -10.816   0.830   0.476  1.00 20.00    +0.028 H 
ATOM    105 H105 LIG A   1      -9.758   0.124   1.674  1.00 20.00    +0.028 H 
ATOM    106 H106 LIG A   1     -10.694  -1.637   0.313  1.00 20.00    +0.028 H 
ATOM    107 H107 LIG A   1      -8.963  -1.579   0.061  1.00 20.00    +0.028 H 
ATOM    108 H108 LIG A   1     -10.089  -1.968  -2.059  1.00 20.00    +0.043 H 
ATOM    109 H109 LIG A   1      -9.300  -0.404  -2.133  1.00 20.00    +0.043 H 
ATOM    110 H110 LIG A   1     -11.414   0.624  -1.678  1.00 20.00    +0.118 HD
ATOM    111 H111 LIG A   1     -12.144  -0.825  -1.536  1.00 20.00    +0.118 HD
ATOM    112 H112 LIG A   1      -0.987  -1.927   0.327  1.00 20.00    +0.068 H 
ATOM    113 H113 LIG A   1       6.584   0.527   0.265  1.00 20.00    +0.057 H 
ATOM    114 H114 LIG A   1       7.055   1.305  -2.043  1.00 20.00    +0.119 HD
ATOM    115 H115 LIG A   1       8.360   1.315  -1.054  1.00 20.00    +0.119 HD
ENDROOT
TORSDOF 0
