ROOT
ATOM      1 C1   LIG A   1      -0.705   0.155   2.371  1.00 20.00    -0.060 C 
ATOM      2 C2   LIG A   1       0.108   0.156   1.067  1.00 20.00    -0.016 C 
ATOM      3 C3   LIG A   1      -0.634   1.005   0.022  1.00 20.00    -0.022 C 
ATOM      4 C4   LIG A   1      -1.974   0.481  -0.268  1.00 20.00    -0.029 A 
ATOM      5 C5   LIG A   1      -2.128  -0.608  -1.105  1.00 20.00    +0.004 A 
ATOM      6 C6   LIG A   1      -1.075  -1.249  -1.720  1.00 20.00    -0.053 A 
ATOM      7 C7   LIG A   1      -1.255  -2.338  -2.558  1.00 20.00    -0.062 A 
ATOM      8 C8   LIG A   1      -2.517  -2.832  -2.817  1.00 20.00    -0.060 A 
ATOM      9 C9   LIG A   1      -3.586  -2.206  -2.212  1.00 20.00    -0.036 A 
ATOM     10 C10  LIG A   1      -3.396  -1.126  -1.382  1.00 20.00    +0.071 A 
ATOM     11 N11  LIG A   1      -4.513  -0.582  -0.841  1.00 20.00    -0.248 NA
ATOM     12 C12  LIG A   1      -4.390   0.481  -0.021  1.00 20.00    +0.071 A 
ATOM     13 C13  LIG A   1      -5.563   0.990   0.502  1.00 20.00    -0.036 A 
ATOM     14 C14  LIG A   1      -5.517   2.075   1.353  1.00 20.00    -0.060 A 
ATOM     15 C15  LIG A   1      -4.270   2.592   1.631  1.00 20.00    -0.062 A 
ATOM     16 C16  LIG A   1      -3.100   2.085   1.111  1.00 20.00    -0.053 A 
ATOM     17 C17  LIG A   1      -3.146   1.003   0.262  1.00 20.00    +0.004 A 
ATOM     18 C18  LIG A   1       1.418   0.819   1.443  1.00 20.00    +0.087 C 
ATOM     19 N19  LIG A   1       1.050   2.151   1.905  1.00 20.00    -0.320 NA
ATOM     20 C20  LIG A   1       2.371   0.905   0.296  1.00 20.00    +0.240 C 
ATOM     21 O21  LIG A   1       2.531   2.087  -0.156  1.00 20.00    -0.273 OA
ATOM     22 N22  LIG A   1       3.028  -0.230  -0.225  1.00 20.00    -0.328 NA
ATOM     23 C23  LIG A   1       2.798  -1.570   0.372  1.00 20.00    +0.022 C 
ATOM     24 C24  LIG A   1       4.118  -2.246   0.202  1.00 20.00    -0.033 C 
ATOM     25 C25  LIG A   1       5.021  -1.276  -0.525  1.00 20.00    -0.020 C 
ATOM     26 C26  LIG A   1       3.944  -0.469  -1.290  1.00 20.00    +0.129 C 
ATOM     27 C27  LIG A   1       4.533   0.641  -2.006  1.00 20.00    +0.326 C 
ATOM     28 O28  LIG A   1       5.315   0.320  -2.994  1.00 20.00    -0.250 OA
ATOM     29 O29  LIG A   1       4.396   1.982  -1.806  1.00 20.00    -0.480 OA
ATOM     30 C30  LIG A   1      -1.808   0.349  -0.057  1.00 20.00    +0.000 C 
ATOM     31 C31  LIG A   1      -0.806  -0.762   0.158  1.00 20.00    +0.000 C 
ATOM     32 Se32 LIG A   1       0.797  -0.090   1.019  1.00 20.00    +0.000 Se
ATOM     33 C33  LIG A   1       2.215   0.275  -0.226  1.00 20.00    +0.000 C 
ATOM     34 H34  LIG A   1      -1.730  -0.233   2.213  1.00 20.00    +0.023 H 
ATOM     35 H35  LIG A   1      -0.227  -0.565   3.066  1.00 20.00    +0.023 H 
ATOM     36 H36  LIG A   1      -0.657   1.146   2.851  1.00 20.00    +0.023 H 
ATOM     37 H37  LIG A   1       0.306  -0.857   0.756  1.00 20.00    +0.032 H 
ATOM     38 H38  LIG A   1      -0.598   2.019   0.451  1.00 20.00    +0.032 H 
ATOM     39 H39  LIG A   1      -0.075   0.970  -0.952  1.00 20.00    +0.032 H 
ATOM     40 H40  LIG A   1      -0.079  -0.917  -1.565  1.00 20.00    +0.063 H 
ATOM     41 H41  LIG A   1      -0.427  -2.843  -3.041  1.00 20.00    +0.062 H 
ATOM     42 H42  LIG A   1      -2.692  -3.675  -3.461  1.00 20.00    +0.062 H 
ATOM     43 H43  LIG A   1      -4.580  -2.607  -2.425  1.00 20.00    +0.065 H 
ATOM     44 H44  LIG A   1      -6.535   0.578   0.278  1.00 20.00    +0.065 H 
ATOM     45 H45  LIG A   1      -6.409   2.514   1.791  1.00 20.00    +0.062 H 
ATOM     46 H46  LIG A   1      -4.222   3.451   2.304  1.00 20.00    +0.062 H 
ATOM     47 H47  LIG A   1      -2.190   2.549   1.387  1.00 20.00    +0.063 H 
ATOM     48 H48  LIG A   1       1.828   0.274   2.306  1.00 20.00    +0.057 H 
ATOM     49 H49  LIG A   1       1.426   2.362   2.859  1.00 20.00    +0.119 HD
ATOM     50 H50  LIG A   1       1.208   2.900   1.224  1.00 20.00    +0.119 HD
ATOM     51 H51  LIG A   1       2.074  -2.069  -0.297  1.00 20.00    +0.049 H 
ATOM     52 H52  LIG A   1       2.479  -1.493   1.429  1.00 20.00    +0.049 H 
ATOM     53 H53  LIG A   1       4.557  -2.594   1.159  1.00 20.00    +0.029 H 
ATOM     54 H54  LIG A   1       4.043  -3.160  -0.448  1.00 20.00    +0.029 H 
ATOM     55 H55  LIG A   1       5.577  -0.594   0.133  1.00 20.00    +0.029 H 
ATOM     56 H56  LIG A   1       5.672  -1.786  -1.250  1.00 20.00    +0.029 H 
ATOM     57 H57  LIG A   1       3.533  -1.230  -2.005  1.00 20.00    +0.065 H 
ATOM     58 H58  LIG A   1       4.855   2.664  -2.395  1.00 20.00    +0.296 HD
ATOM     59 H59  LIG A   1      -2.798   0.137   0.393  1.00 20.00    +0.000 H 
ATOM     60 H60  LIG A   1      -1.950   0.487  -1.137  1.00 20.00    +0.000 H 
ATOM     61 H61  LIG A   1      -1.435   1.258   0.454  1.00 20.00    +0.000 H 
ATOM     62 H62  LIG A   1      -1.298  -1.496   0.849  1.00 20.00    +0.000 H 
ATOM     63 H63  LIG A   1      -0.514  -1.258  -0.798  1.00 20.00    +0.000 H 
ATOM     64 H64  LIG A   1       2.364   1.381  -0.271  1.00 20.00    +0.000 H 
ATOM     65 H65  LIG A   1       2.046  -0.122  -1.237  1.00 20.00    +0.000 H 
ATOM     66 H66  LIG A   1       3.188  -0.160   0.119  1.00 20.00    +0.000 H 
ENDROOT
TORSDOF 0
