ROOT
ATOM      1 C1   LIG A   1       9.463  -0.685   0.175  1.00 20.00    -0.060 C 
ATOM      2 C2   LIG A   1       8.007  -1.170   0.043  1.00 20.00    -0.016 C 
ATOM      3 C3   LIG A   1       7.603  -1.758   1.440  1.00 20.00    -0.023 C 
ATOM      4 C4   LIG A   1       6.134  -2.042   1.580  1.00 20.00    -0.048 A 
ATOM      5 C5   LIG A   1       5.335  -1.189   2.348  1.00 20.00    -0.058 A 
ATOM      6 C6   LIG A   1       3.974  -1.106   2.084  1.00 20.00    -0.051 A 
ATOM      7 C7   LIG A   1       3.445  -1.825   1.008  1.00 20.00    +0.017 A 
ATOM      8 C8   LIG A   1       4.178  -2.892   0.476  1.00 20.00    -0.051 A 
ATOM      9 C9   LIG A   1       5.531  -3.012   0.775  1.00 20.00    -0.058 A 
ATOM     10 C10  LIG A   1       2.265  -1.309   0.284  1.00 20.00    +0.140 C 
ATOM     11 C11  LIG A   1       2.320  -1.010  -1.034  1.00 20.00    +0.047 C 
ATOM     12 C12  LIG A   1       3.539  -0.781  -1.879  1.00 20.00    +0.256 C 
ATOM     13 O13  LIG A   1       3.425  -0.866  -3.101  1.00 20.00    -0.269 OA
ATOM     14 N14  LIG A   1       4.564  -0.087  -1.241  1.00 20.00    -0.278 NA
ATOM     15 C15  LIG A   1       4.470   1.380  -1.297  1.00 20.00    +0.029 C 
ATOM     16 C16  LIG A   1       3.095   2.013  -0.964  1.00 20.00    -0.034 C 
ATOM     17 C17  LIG A   1       2.767   1.946   0.531  1.00 20.00    -0.034 C 
ATOM     18 C18  LIG A   1       1.287   2.148   0.909  1.00 20.00    +0.085 C 
ATOM     19 C19  LIG A   1       1.186   2.256   2.423  1.00 20.00    +0.311 C 
ATOM     20 O20  LIG A   1       1.520   1.423   3.251  1.00 20.00    -0.252 OA
ATOM     21 O21  LIG A   1       0.671   3.439   2.823  1.00 20.00    -0.481 OA
ATOM     22 C22  LIG A   1       0.221   1.188   0.384  1.00 20.00    +0.009 A 
ATOM     23 C23  LIG A   1      -0.880   1.764  -0.278  1.00 20.00    -0.052 A 
ATOM     24 C24  LIG A   1      -1.973   0.998  -0.709  1.00 20.00    -0.038 A 
ATOM     25 C25  LIG A   1      -2.045  -0.372  -0.458  1.00 20.00    +0.038 A 
ATOM     26 N26  LIG A   1      -3.075  -1.196  -0.901  1.00 20.00    -0.385 NA
ATOM     27 C27  LIG A   1      -4.349  -0.687  -1.391  1.00 20.00    +0.016 C 
ATOM     28 C28  LIG A   1      -5.251  -0.234  -0.245  1.00 20.00    -0.023 C 
ATOM     29 C29  LIG A   1      -6.560   0.351  -0.785  1.00 20.00    -0.003 C 
ATOM     30 N30  LIG A   1      -7.468   0.655   0.322  1.00 20.00    -0.317 NA
ATOM     31 C31  LIG A   1      -8.678   1.346  -0.130  1.00 20.00    -0.005 C 
ATOM     32 C32  LIG A   1      -9.931   0.657   0.430  1.00 20.00    -0.039 C 
ATOM     33 C33  LIG A   1     -10.146  -0.783  -0.060  1.00 20.00    -0.040 C 
ATOM     34 C34  LIG A   1     -10.332  -0.939  -1.570  1.00 20.00    -0.008 C 
ATOM     35 N35  LIG A   1     -11.546  -0.299  -2.062  1.00 20.00    -0.330 NA
ATOM     36 C36  LIG A   1      -0.939  -0.961   0.163  1.00 20.00    +0.004 A 
ATOM     37 C37  LIG A   1       0.179  -0.207   0.563  1.00 20.00    +0.133 A 
ATOM     38 O38  LIG A   1       1.206  -0.943   1.118  1.00 20.00    -0.456 OA
ATOM     39 C39  LIG A   1       5.812  -0.718  -1.305  1.00 20.00    +0.246 C 
ATOM     40 O40  LIG A   1       5.986  -1.770  -1.930  1.00 20.00    -0.273 OA
ATOM     41 C41  LIG A   1       7.019  -0.065  -0.523  1.00 20.00    +0.088 C 
ATOM     42 N42  LIG A   1       7.714   0.837  -1.473  1.00 20.00    -0.320 NA
ATOM     43 O43  LIG A   1       2.428  -0.097   0.253  1.00 20.00    -0.504 OA
ATOM     44 C44  LIG A   1       1.078  -0.250   0.100  1.00 20.00    +0.161 A 
ATOM     45 C45  LIG A   1       0.488  -1.505  -0.027  1.00 20.00    -0.016 A 
ATOM     46 C46  LIG A   1      -0.902  -1.597  -0.179  1.00 20.00    -0.055 A 
ATOM     47 C47  LIG A   1      -1.692  -0.442  -0.201  1.00 20.00    -0.016 A 
ATOM     48 C48  LIG A   1      -1.084   0.800  -0.076  1.00 20.00    +0.161 A 
ATOM     49 O49  LIG A   1      -1.852   1.928  -0.099  1.00 20.00    -0.504 OA
ATOM     50 C50  LIG A   1       0.293   0.897   0.074  1.00 20.00    +0.200 A 
ATOM     51 O51  LIG A   1       0.865   2.136   0.196  1.00 20.00    -0.502 OA
ATOM     52 H52  LIG A   1       9.897  -0.448  -0.803  1.00 20.00    +0.023 H 
ATOM     53 H53  LIG A   1      10.094  -1.462   0.619  1.00 20.00    +0.023 H 
ATOM     54 H54  LIG A   1       9.531   0.205   0.811  1.00 20.00    +0.023 H 
ATOM     55 H55  LIG A   1       8.028  -2.009  -0.665  1.00 20.00    +0.032 H 
ATOM     56 H56  LIG A   1       7.910  -1.057   2.228  1.00 20.00    +0.032 H 
ATOM     57 H57  LIG A   1       8.163  -2.683   1.629  1.00 20.00    +0.032 H 
ATOM     58 H58  LIG A   1       5.780  -0.494   3.054  1.00 20.00    +0.063 H 
ATOM     59 H59  LIG A   1       3.383  -0.364   2.611  1.00 20.00    +0.063 H 
ATOM     60 H60  LIG A   1       3.760  -3.519  -0.308  1.00 20.00    +0.063 H 
ATOM     61 H61  LIG A   1       6.132  -3.723   0.211  1.00 20.00    +0.063 H 
ATOM     62 H62  LIG A   1       1.431  -0.704  -1.578  1.00 20.00    +0.072 H 
ATOM     63 H63  LIG A   1       4.737   1.668  -2.321  1.00 20.00    +0.050 H 
ATOM     64 H64  LIG A   1       5.219   1.825  -0.637  1.00 20.00    +0.050 H 
ATOM     65 H65  LIG A   1       2.303   1.576  -1.578  1.00 20.00    +0.029 H 
ATOM     66 H66  LIG A   1       3.133   3.072  -1.251  1.00 20.00    +0.029 H 
ATOM     67 H67  LIG A   1       3.137   1.024   0.958  1.00 20.00    +0.028 H 
ATOM     68 H68  LIG A   1       3.361   2.727   1.032  1.00 20.00    +0.028 H 
ATOM     69 H69  LIG A   1       1.044   3.147   0.521  1.00 20.00    +0.047 H 
ATOM     70 H70  LIG A   1       0.616   3.355   3.800  1.00 20.00    +0.296 HD
ATOM     71 H71  LIG A   1      -0.914   2.838  -0.463  1.00 20.00    +0.063 H 
ATOM     72 H72  LIG A   1      -2.773   1.514  -1.230  1.00 20.00    +0.064 H 
ATOM     73 H73  LIG A   1      -3.167  -2.048  -0.352  1.00 20.00    +0.160 HD
ATOM     74 H74  LIG A   1      -4.847  -1.503  -1.928  1.00 20.00    +0.049 H 
ATOM     75 H75  LIG A   1      -4.203   0.109  -2.128  1.00 20.00    +0.049 H 
ATOM     76 H76  LIG A   1      -4.738   0.516   0.368  1.00 20.00    +0.030 H 
ATOM     77 H77  LIG A   1      -5.463  -1.083   0.416  1.00 20.00    +0.030 H 
ATOM     78 H78  LIG A   1      -6.337   1.259  -1.361  1.00 20.00    +0.043 H 
ATOM     79 H79  LIG A   1      -7.039  -0.373  -1.460  1.00 20.00    +0.043 H 
ATOM     80 H80  LIG A   1      -6.981   1.228   1.022  1.00 20.00    +0.122 HD
ATOM     81 H81  LIG A   1      -8.739   1.407  -1.221  1.00 20.00    +0.043 H 
ATOM     82 H82  LIG A   1      -8.646   2.382   0.234  1.00 20.00    +0.043 H 
ATOM     83 H83  LIG A   1     -10.811   1.269   0.191  1.00 20.00    +0.028 H 
ATOM     84 H84  LIG A   1      -9.872   0.639   1.527  1.00 20.00    +0.028 H 
ATOM     85 H85  LIG A   1     -11.021  -1.201   0.454  1.00 20.00    +0.028 H 
ATOM     86 H86  LIG A   1      -9.292  -1.405   0.247  1.00 20.00    +0.028 H 
ATOM     87 H87  LIG A   1     -10.388  -2.007  -1.808  1.00 20.00    +0.043 H 
ATOM     88 H88  LIG A   1      -9.471  -0.544  -2.121  1.00 20.00    +0.043 H 
ATOM     89 H89  LIG A   1     -11.542   0.694  -1.839  1.00 20.00    +0.118 HD
ATOM     90 H90  LIG A   1     -12.355  -0.698  -1.584  1.00 20.00    +0.118 HD
ATOM     91 H91  LIG A   1      -0.921  -2.036   0.326  1.00 20.00    +0.068 H 
ATOM     92 H92  LIG A   1       6.642   0.529   0.312  1.00 20.00    +0.057 H 
ATOM     93 H93  LIG A   1       7.071   1.486  -1.911  1.00 20.00    +0.119 HD
ATOM     94 H94  LIG A   1       8.405   1.396  -0.976  1.00 20.00    +0.119 HD
ATOM     95 H95  LIG A   1       2.830  -0.983   0.285  1.00 20.00    +0.293 HD
ATOM     96 H96  LIG A   1       1.081  -2.413  -0.014  1.00 20.00    +0.066 H 
ATOM     97 H97  LIG A   1      -1.373  -2.572  -0.280  1.00 20.00    +0.063 H 
ATOM     98 H98  LIG A   1      -2.770  -0.508  -0.314  1.00 20.00    +0.066 H 
ATOM     99 H99  LIG A   1      -1.207   2.659  -0.032  1.00 20.00    +0.293 HD
ATOM    100 H100 LIG A   1       1.818   1.946   0.313  1.00 20.00    +0.293 HD
ENDROOT
TORSDOF 0
