MODEL 1
REMARK VINA RESULT:   -10.903      0.000      0.000
REMARK INTER + INTRA:         -10.903
REMARK INTER:                 -10.903
REMARK INTRA:                   0.000
REMARK UNBOUND:                 0.000
ROOT
ATOM      1 C1   LIG A   1      18.166  13.857  10.793  1.00 20.00    -0.060 C 
ATOM      2 C2   LIG A   1      18.971  15.093  10.346  1.00 20.00    -0.016 C 
ATOM      3 C3   LIG A   1      20.484  14.693  10.252  1.00 20.00    -0.023 C 
ATOM      4 C4   LIG A   1      21.028  14.614   8.849  1.00 20.00    -0.044 A 
ATOM      5 C5   LIG A   1      20.641  13.591   7.982  1.00 20.00    -0.058 A 
ATOM      6 C6   LIG A   1      20.800  13.755   6.608  1.00 20.00    -0.054 A 
ATOM      7 C7   LIG A   1      21.311  14.958   6.087  1.00 20.00    +0.009 A 
ATOM      8 C8   LIG A   1      21.840  15.911   6.977  1.00 20.00    +0.130 A 
ATOM      9 C9   LIG A   1      21.760  15.699   8.354  1.00 20.00    -0.016 A 
ATOM     10 O10  LIG A   1      22.320  17.094   6.459  1.00 20.00    -0.464 OA
ATOM     11 C11  LIG A   1      22.126  18.261   7.170  1.00 20.00    +0.104 C 
ATOM     12 C12  LIG A   1      20.982  18.951   7.360  1.00 20.00    +0.082 C 
ATOM     13 C13  LIG A   1      21.066  20.268   8.029  1.00 20.00    -0.010 A 
ATOM     14 C14  LIG A   1      21.567  20.375   9.332  1.00 20.00    -0.052 A 
ATOM     15 C15  LIG A   1      21.663  21.623   9.959  1.00 20.00    -0.038 A 
ATOM     16 C16  LIG A   1      21.279  22.803   9.307  1.00 20.00    +0.034 A 
ATOM     17 N17  LIG A   1      21.338  24.002  10.024  1.00 20.00    -0.385 NA
ATOM     18 C18  LIG A   1      21.156  25.277   9.333  1.00 20.00    +0.016 C 
ATOM     19 C19  LIG A   1      21.277  26.445  10.316  1.00 20.00    -0.023 C 
ATOM     20 C20  LIG A   1      20.086  26.575  11.277  1.00 20.00    -0.003 C 
ATOM     21 N21  LIG A   1      19.897  25.447  12.194  1.00 20.00    -0.317 NA
ATOM     22 C22  LIG A   1      20.858  25.392  13.294  1.00 20.00    -0.005 C 
ATOM     23 C23  LIG A   1      20.635  26.433  14.397  1.00 20.00    -0.039 C 
ATOM     24 C24  LIG A   1      19.439  26.171  15.319  1.00 20.00    -0.040 C 
ATOM     25 C25  LIG A   1      18.080  26.180  14.623  1.00 20.00    -0.008 C 
ATOM     26 N26  LIG A   1      17.011  26.156  15.623  1.00 20.00    -0.330 NA
ATOM     27 C27  LIG A   1      20.735  22.681   8.025  1.00 20.00    -0.038 A 
ATOM     28 C28  LIG A   1      20.645  21.436   7.386  1.00 20.00    -0.052 A 
ATOM     29 C29  LIG A   1      19.677  18.482   6.774  1.00 20.00    +0.264 C 
ATOM     30 O30  LIG A   1      19.087  19.178   5.946  1.00 20.00    -0.268 OA
ATOM     31 N31  LIG A   1      19.209  17.241   7.191  1.00 20.00    -0.277 NA
ATOM     32 C32  LIG A   1      18.464  16.452   6.201  1.00 20.00    +0.029 C 
ATOM     33 C33  LIG A   1      18.856  16.534   4.707  1.00 20.00    -0.034 C 
ATOM     34 C34  LIG A   1      20.333  16.493   4.268  1.00 20.00    -0.034 C 
ATOM     35 C35  LIG A   1      21.164  15.225   4.596  1.00 20.00    +0.085 C 
ATOM     36 C36  LIG A   1      22.520  15.254   3.892  1.00 20.00    +0.311 C 
ATOM     37 O37  LIG A   1      23.622  15.061   4.379  1.00 20.00    -0.252 OA
ATOM     38 O38  LIG A   1      22.414  15.452   2.559  1.00 20.00    -0.481 OA
ATOM     39 C39  LIG A   1      19.076  17.015   8.572  1.00 20.00    +0.246 C 
ATOM     40 O40  LIG A   1      19.494  17.803   9.429  1.00 20.00    -0.273 OA
ATOM     41 C41  LIG A   1      18.324  15.739   9.068  1.00 20.00    +0.088 C 
ATOM     42 N42  LIG A   1      16.927  16.149   9.365  1.00 20.00    -0.320 NA
ATOM     43 N43  LIG A   1      19.429  21.354  10.426  1.00 20.00    -0.330 NA
ATOM     44 C44  LIG A   1      19.854  21.089   9.052  1.00 20.00    -0.007 C 
ATOM     45 C45  LIG A   1      20.959  20.032   8.998  1.00 20.00    -0.029 C 
ATOM     46 C46  LIG A   1      20.477  18.613   9.305  1.00 20.00    -0.007 C 
ATOM     47 N47  LIG A   1      19.671  18.069   8.214  1.00 20.00    -0.330 NA
ATOM     48 H48  LIG A   1      17.123  14.110  11.009  1.00 20.00    +0.023 H 
ATOM     49 H49  LIG A   1      18.175  13.077  10.024  1.00 20.00    +0.023 H 
ATOM     50 H50  LIG A   1      18.586  13.434  11.712  1.00 20.00    +0.023 H 
ATOM     51 H51  LIG A   1      18.898  15.816  11.171  1.00 20.00    +0.032 H 
ATOM     52 H52  LIG A   1      21.064  15.434  10.818  1.00 20.00    +0.032 H 
ATOM     53 H53  LIG A   1      20.677  13.740  10.760  1.00 20.00    +0.032 H 
ATOM     54 H54  LIG A   1      20.123  12.713   8.360  1.00 20.00    +0.063 H 
ATOM     55 H55  LIG A   1      20.422  12.979   5.944  1.00 20.00    +0.063 H 
ATOM     56 H56  LIG A   1      22.114  16.463   9.043  1.00 20.00    +0.067 H 
ATOM     57 H57  LIG A   1      23.095  18.626   7.497  1.00 20.00    +0.105 H 
ATOM     58 H58  LIG A   1      21.858  19.485   9.883  1.00 20.00    +0.063 H 
ATOM     59 H59  LIG A   1      22.028  21.663  10.984  1.00 20.00    +0.064 H 
ATOM     60 H60  LIG A   1      22.131  24.005  10.662  1.00 20.00    +0.160 HD
ATOM     61 H61  LIG A   1      21.925  25.387   8.558  1.00 20.00    +0.049 H 
ATOM     62 H62  LIG A   1      20.172  25.321   8.851  1.00 20.00    +0.049 H 
ATOM     63 H63  LIG A   1      21.329  27.372   9.730  1.00 20.00    +0.030 H 
ATOM     64 H64  LIG A   1      22.218  26.379  10.874  1.00 20.00    +0.030 H 
ATOM     65 H65  LIG A   1      19.169  26.660  10.679  1.00 20.00    +0.043 H 
ATOM     66 H66  LIG A   1      20.162  27.518  11.828  1.00 20.00    +0.043 H 
ATOM     67 H67  LIG A   1      19.994  24.586  11.638  1.00 20.00    +0.122 HD
ATOM     68 H68  LIG A   1      20.796  24.394  13.747  1.00 20.00    +0.043 H 
ATOM     69 H69  LIG A   1      21.882  25.482  12.913  1.00 20.00    +0.043 H 
ATOM     70 H70  LIG A   1      20.562  27.442  13.978  1.00 20.00    +0.028 H 
ATOM     71 H71  LIG A   1      21.533  26.441  15.029  1.00 20.00    +0.028 H 
ATOM     72 H72  LIG A   1      19.453  26.943  16.101  1.00 20.00    +0.028 H 
ATOM     73 H73  LIG A   1      19.580  25.211  15.833  1.00 20.00    +0.028 H 
ATOM     74 H74  LIG A   1      17.968  27.073  13.998  1.00 20.00    +0.043 H 
ATOM     75 H75  LIG A   1      17.967  25.297  13.988  1.00 20.00    +0.043 H 
ATOM     76 H76  LIG A   1      16.112  26.154  15.144  1.00 20.00    +0.118 HD
ATOM     77 H77  LIG A   1      17.043  27.015  16.170  1.00 20.00    +0.118 HD
ATOM     78 H78  LIG A   1      20.373  23.549   7.484  1.00 20.00    +0.064 H 
ATOM     79 H79  LIG A   1      20.234  21.395   6.380  1.00 20.00    +0.063 H 
ATOM     80 H80  LIG A   1      18.518  15.398   6.466  1.00 20.00    +0.050 H 
ATOM     81 H81  LIG A   1      17.408  16.735   6.300  1.00 20.00    +0.050 H 
ATOM     82 H82  LIG A   1      18.424  17.454   4.293  1.00 20.00    +0.029 H 
ATOM     83 H83  LIG A   1      18.327  15.723   4.189  1.00 20.00    +0.029 H 
ATOM     84 H84  LIG A   1      20.312  16.601   3.174  1.00 20.00    +0.028 H 
ATOM     85 H85  LIG A   1      20.845  17.398   4.601  1.00 20.00    +0.028 H 
ATOM     86 H86  LIG A   1      20.635  14.370   4.152  1.00 20.00    +0.047 H 
ATOM     87 H87  LIG A   1      23.345  15.428   2.250  1.00 20.00    +0.296 HD
ATOM     88 H88  LIG A   1      18.268  14.967   8.304  1.00 20.00    +0.057 H 
ATOM     89 H89  LIG A   1      16.955  16.820  10.139  1.00 20.00    +0.119 HD
ATOM     90 H90  LIG A   1      16.542  16.670   8.577  1.00 20.00    +0.119 HD
ATOM     91 H91  LIG A   1      20.199  21.770  10.948  1.00 20.00    +0.118 HD
ATOM     92 H92  LIG A   1      18.684  22.049  10.414  1.00 20.00    +0.118 HD
ATOM     93 H93  LIG A   1      18.989  20.779   8.456  1.00 20.00    +0.043 H 
ATOM     94 H94  LIG A   1      20.228  22.022   8.620  1.00 20.00    +0.043 H 
ATOM     95 H95  LIG A   1      21.421  20.053   8.002  1.00 20.00    +0.029 H 
ATOM     96 H96  LIG A   1      21.755  20.299   9.705  1.00 20.00    +0.029 H 
ATOM     97 H97  LIG A   1      21.348  17.963   9.449  1.00 20.00    +0.043 H 
ATOM     98 H98  LIG A   1      19.898  18.591  10.234  1.00 20.00    +0.043 H 
ATOM     99 H99  LIG A   1      19.363  17.130   8.466  1.00 20.00    +0.118 HD
ATOM    100 H100 LIG A   1      20.248  17.965   7.380  1.00 20.00    +0.118 HD
ENDROOT
TORSDOF 0
                                                                                                       
ENDMDL
MODEL 2
REMARK VINA RESULT:   -10.725      3.676      9.761
REMARK INTER + INTRA:         -10.725
REMARK INTER:                 -10.725
REMARK INTRA:                   0.000
REMARK UNBOUND:                 0.000
ROOT
ATOM      1 C1   LIG A   1      21.590  22.860   6.777  1.00 20.00    -0.060 C 
ATOM      2 C2   LIG A   1      21.350  21.368   7.079  1.00 20.00    -0.016 C 
ATOM      3 C3   LIG A   1      22.728  20.622   7.019  1.00 20.00    -0.023 C 
ATOM      4 C4   LIG A   1      23.252  20.160   8.354  1.00 20.00    -0.044 A 
ATOM      5 C5   LIG A   1      23.719  21.073   9.301  1.00 20.00    -0.058 A 
ATOM      6 C6   LIG A   1      23.796  20.698  10.640  1.00 20.00    -0.054 A 
ATOM      7 C7   LIG A   1      23.370  19.421  11.050  1.00 20.00    +0.009 A 
ATOM      8 C8   LIG A   1      23.053  18.466  10.067  1.00 20.00    +0.130 A 
ATOM      9 C9   LIG A   1      23.067  18.821   8.718  1.00 20.00    -0.016 A 
ATOM     10 O10  LIG A   1      22.618  17.224  10.478  1.00 20.00    -0.464 OA
ATOM     11 C11  LIG A   1      21.640  16.584   9.745  1.00 20.00    +0.104 C 
ATOM     12 C12  LIG A   1      20.325  16.879   9.656  1.00 20.00    +0.082 C 
ATOM     13 C13  LIG A   1      19.448  15.936   8.929  1.00 20.00    -0.010 A 
ATOM     14 C14  LIG A   1      19.668  15.658   7.574  1.00 20.00    -0.052 A 
ATOM     15 C15  LIG A   1      18.848  14.754   6.889  1.00 20.00    -0.038 A 
ATOM     16 C16  LIG A   1      17.796  14.087   7.530  1.00 20.00    +0.034 A 
ATOM     17 N17  LIG A   1      16.978  13.252   6.762  1.00 20.00    -0.385 NA
ATOM     18 C18  LIG A   1      16.009  12.375   7.416  1.00 20.00    +0.016 C 
ATOM     19 C19  LIG A   1      15.244  11.549   6.377  1.00 20.00    -0.023 C 
ATOM     20 C20  LIG A   1      14.238  12.366   5.552  1.00 20.00    -0.003 C 
ATOM     21 N21  LIG A   1      14.825  13.412   4.709  1.00 20.00    -0.317 NA
ATOM     22 C22  LIG A   1      15.502  12.918   3.511  1.00 20.00    -0.005 C 
ATOM     23 C23  LIG A   1      14.567  12.431   2.399  1.00 20.00    -0.039 C 
ATOM     24 C24  LIG A   1      13.829  13.533   1.628  1.00 20.00    -0.040 C 
ATOM     25 C25  LIG A   1      12.873  14.373   2.472  1.00 20.00    -0.008 C 
ATOM     26 N26  LIG A   1      12.061  15.223   1.600  1.00 20.00    -0.330 NA
ATOM     27 C27  LIG A   1      17.553  14.406   8.869  1.00 20.00    -0.038 A 
ATOM     28 C28  LIG A   1      18.375  15.304   9.565  1.00 20.00    -0.052 A 
ATOM     29 C29  LIG A   1      19.731  18.043  10.405  1.00 20.00    +0.264 C 
ATOM     30 O30  LIG A   1      18.869  17.848  11.264  1.00 20.00    -0.268 OA
ATOM     31 N31  LIG A   1      20.219  19.306  10.096  1.00 20.00    -0.277 NA
ATOM     32 C32  LIG A   1      20.272  20.279  11.195  1.00 20.00    +0.029 C 
ATOM     33 C33  LIG A   1      20.581  19.793  12.630  1.00 20.00    -0.034 C 
ATOM     34 C34  LIG A   1      21.705  18.774  12.902  1.00 20.00    -0.034 C 
ATOM     35 C35  LIG A   1      23.160  19.167  12.536  1.00 20.00    +0.085 C 
ATOM     36 C36  LIG A   1      24.163  18.151  13.080  1.00 20.00    +0.311 C 
ATOM     37 O37  LIG A   1      25.069  17.595  12.481  1.00 20.00    -0.252 OA
ATOM     38 O38  LIG A   1      24.021  17.935  14.407  1.00 20.00    -0.481 OA
ATOM     39 C39  LIG A   1      20.204  19.709   8.748  1.00 20.00    +0.246 C 
ATOM     40 O40  LIG A   1      19.921  18.944   7.817  1.00 20.00    -0.273 OA
ATOM     41 C41  LIG A   1      20.507  21.200   8.394  1.00 20.00    +0.088 C 
ATOM     42 N42  LIG A   1      19.195  21.882   8.239  1.00 20.00    -0.320 NA
ATOM     43 N43  LIG A   1      17.386  16.515   6.687  1.00 20.00    -0.330 NA
ATOM     44 C44  LIG A   1      17.950  16.272   8.015  1.00 20.00    -0.007 C 
ATOM     45 C45  LIG A   1      19.480  16.284   7.988  1.00 20.00    -0.029 C 
ATOM     46 C46  LIG A   1      20.087  17.676   7.797  1.00 20.00    -0.007 C 
ATOM     47 N47  LIG A   1      19.933  18.501   8.993  1.00 20.00    -0.330 NA
ATOM     48 H48  LIG A   1      20.648  23.407   6.670  1.00 20.00    +0.023 H 
ATOM     49 H49  LIG A   1      22.171  23.338   7.572  1.00 20.00    +0.023 H 
ATOM     50 H50  LIG A   1      22.135  22.981   5.835  1.00 20.00    +0.023 H 
ATOM     51 H51  LIG A   1      20.757  20.980   6.238  1.00 20.00    +0.032 H 
ATOM     52 H52  LIG A   1      22.611  19.751   6.360  1.00 20.00    +0.032 H 
ATOM     53 H53  LIG A   1      23.495  21.238   6.533  1.00 20.00    +0.032 H 
ATOM     54 H54  LIG A   1      23.924  22.103   9.020  1.00 20.00    +0.063 H 
ATOM     55 H55  LIG A   1      24.089  21.447  11.374  1.00 20.00    +0.063 H 
ATOM     56 H56  LIG A   1      22.763  18.100   7.962  1.00 20.00    +0.067 H 
ATOM     57 H57  LIG A   1      22.075  15.696   9.297  1.00 20.00    +0.105 H 
ATOM     58 H58  LIG A   1      20.460  16.167   7.031  1.00 20.00    +0.063 H 
ATOM     59 H59  LIG A   1      19.031  14.587   5.829  1.00 20.00    +0.064 H 
ATOM     60 H60  LIG A   1      17.518  12.780   6.039  1.00 20.00    +0.160 HD
ATOM     61 H61  LIG A   1      16.534  11.690   8.094  1.00 20.00    +0.049 H 
ATOM     62 H62  LIG A   1      15.290  12.959   8.002  1.00 20.00    +0.049 H 
ATOM     63 H63  LIG A   1      14.677  10.777   6.914  1.00 20.00    +0.030 H 
ATOM     64 H64  LIG A   1      15.943  11.019   5.720  1.00 20.00    +0.030 H 
ATOM     65 H65  LIG A   1      13.546  12.862   6.245  1.00 20.00    +0.043 H 
ATOM     66 H66  LIG A   1      13.618  11.688   4.957  1.00 20.00    +0.043 H 
ATOM     67 H67  LIG A   1      15.516  13.913   5.286  1.00 20.00    +0.122 HD
ATOM     68 H68  LIG A   1      16.117  13.735   3.111  1.00 20.00    +0.043 H 
ATOM     69 H69  LIG A   1      16.204  12.118   3.771  1.00 20.00    +0.043 H 
ATOM     70 H70  LIG A   1      13.844  11.703   2.781  1.00 20.00    +0.028 H 
ATOM     71 H71  LIG A   1      15.180  11.884   1.669  1.00 20.00    +0.028 H 
ATOM     72 H72  LIG A   1      13.268  13.046   0.818  1.00 20.00    +0.028 H 
ATOM     73 H73  LIG A   1      14.562  14.190   1.142  1.00 20.00    +0.028 H 
ATOM     74 H74  LIG A   1      12.214  13.733   3.068  1.00 20.00    +0.043 H 
ATOM     75 H75  LIG A   1      13.431  15.023   3.152  1.00 20.00    +0.043 H 
ATOM     76 H76  LIG A   1      11.435  15.783   2.177  1.00 20.00    +0.118 HD
ATOM     77 H77  LIG A   1      11.465  14.636   1.019  1.00 20.00    +0.118 HD
ATOM     78 H78  LIG A   1      16.724  13.963   9.411  1.00 20.00    +0.064 H 
ATOM     79 H79  LIG A   1      18.159  15.505  10.613  1.00 20.00    +0.063 H 
ATOM     80 H80  LIG A   1      21.020  21.037  10.970  1.00 20.00    +0.050 H 
ATOM     81 H81  LIG A   1      19.306  20.800  11.203  1.00 20.00    +0.050 H 
ATOM     82 H82  LIG A   1      19.658  19.373  13.052  1.00 20.00    +0.029 H 
ATOM     83 H83  LIG A   1      20.780  20.686  13.238  1.00 20.00    +0.029 H 
ATOM     84 H84  LIG A   1      21.674  18.592  13.986  1.00 20.00    +0.028 H 
ATOM     85 H85  LIG A   1      21.438  17.804  12.476  1.00 20.00    +0.028 H 
ATOM     86 H86  LIG A   1      23.386  20.099  13.071  1.00 20.00    +0.047 H 
ATOM     87 H87  LIG A   1      24.730  17.288  14.610  1.00 20.00    +0.296 HD
ATOM     88 H88  LIG A   1      21.036  21.717   9.190  1.00 20.00    +0.057 H 
ATOM     89 H89  LIG A   1      18.714  21.458   7.439  1.00 20.00    +0.119 HD
ATOM     90 H90  LIG A   1      18.601  21.680   9.043  1.00 20.00    +0.119 HD
ATOM     91 H91  LIG A   1      17.632  15.746   6.066  1.00 20.00    +0.118 HD
ATOM     92 H92  LIG A   1      16.369  16.514   6.754  1.00 20.00    +0.118 HD
ATOM     93 H93  LIG A   1      17.567  17.020   8.717  1.00 20.00    +0.043 H 
ATOM     94 H94  LIG A   1      17.605  15.293   8.363  1.00 20.00    +0.043 H 
ATOM     95 H95  LIG A   1      19.854  15.849   8.924  1.00 20.00    +0.029 H 
ATOM     96 H96  LIG A   1      19.837  15.626   7.185  1.00 20.00    +0.029 H 
ATOM     97 H97  LIG A   1      21.157  17.573   7.583  1.00 20.00    +0.043 H 
ATOM     98 H98  LIG A   1      19.631  18.184   6.941  1.00 20.00    +0.043 H 
ATOM     99 H99  LIG A   1      20.339  19.420   8.817  1.00 20.00    +0.118 HD
ATOM    100 H100 LIG A   1      20.468  18.095   9.760  1.00 20.00    +0.118 HD
ENDROOT
TORSDOF 0
                                                                                                       
ENDMDL
MODEL 3
REMARK VINA RESULT:   -10.087      4.623      7.579
REMARK INTER + INTRA:         -10.087
REMARK INTER:                 -10.087
REMARK INTRA:                   0.000
REMARK UNBOUND:                 0.000
ROOT
ATOM      1 C1   LIG A   1      19.591  20.563   7.314  1.00 20.00    -0.060 C 
ATOM      2 C2   LIG A   1      19.684  21.119   8.748  1.00 20.00    -0.016 C 
ATOM      3 C3   LIG A   1      19.633  19.914   9.750  1.00 20.00    -0.023 C 
ATOM      4 C4   LIG A   1      20.935  19.625  10.453  1.00 20.00    -0.044 A 
ATOM      5 C5   LIG A   1      22.021  19.085   9.764  1.00 20.00    -0.058 A 
ATOM      6 C6   LIG A   1      23.305  19.216  10.289  1.00 20.00    -0.054 A 
ATOM      7 C7   LIG A   1      23.517  19.921  11.488  1.00 20.00    +0.009 A 
ATOM      8 C8   LIG A   1      22.401  20.320  12.245  1.00 20.00    +0.130 A 
ATOM      9 C9   LIG A   1      21.112  20.104  11.756  1.00 20.00    -0.016 A 
ATOM     10 O10  LIG A   1      22.618  21.028  13.408  1.00 20.00    -0.464 OA
ATOM     11 C11  LIG A   1      21.739  22.036  13.749  1.00 20.00    +0.104 C 
ATOM     12 C12  LIG A   1      21.590  23.252  13.182  1.00 20.00    +0.082 C 
ATOM     13 C13  LIG A   1      20.685  24.221  13.839  1.00 20.00    -0.010 A 
ATOM     14 C14  LIG A   1      19.327  23.926  14.008  1.00 20.00    -0.052 A 
ATOM     15 C15  LIG A   1      18.473  24.835  14.644  1.00 20.00    -0.038 A 
ATOM     16 C16  LIG A   1      18.945  26.055  15.146  1.00 20.00    +0.034 A 
ATOM     17 N17  LIG A   1      18.019  26.941  15.706  1.00 20.00    -0.385 NA
ATOM     18 C18  LIG A   1      18.482  28.122  16.430  1.00 20.00    +0.016 C 
ATOM     19 C19  LIG A   1      17.293  28.928  16.963  1.00 20.00    -0.023 C 
ATOM     20 C20  LIG A   1      16.504  29.667  15.872  1.00 20.00    -0.003 C 
ATOM     21 N21  LIG A   1      15.847  28.807  14.884  1.00 20.00    -0.317 NA
ATOM     22 C22  LIG A   1      14.651  28.125  15.374  1.00 20.00    -0.005 C 
ATOM     23 C23  LIG A   1      13.418  29.022  15.535  1.00 20.00    -0.039 C 
ATOM     24 C24  LIG A   1      12.740  29.451  14.228  1.00 20.00    -0.040 C 
ATOM     25 C25  LIG A   1      13.609  30.302  13.305  1.00 20.00    -0.008 C 
ATOM     26 N26  LIG A   1      12.793  30.843  12.217  1.00 20.00    -0.330 NA
ATOM     27 C27  LIG A   1      20.292  26.362  14.930  1.00 20.00    -0.038 A 
ATOM     28 C28  LIG A   1      21.155  25.453  14.302  1.00 20.00    -0.052 A 
ATOM     29 C29  LIG A   1      22.433  23.678  12.009  1.00 20.00    +0.264 C 
ATOM     30 O30  LIG A   1      23.193  24.642  12.114  1.00 20.00    -0.268 OA
ATOM     31 N31  LIG A   1      22.323  22.924  10.847  1.00 20.00    -0.277 NA
ATOM     32 C32  LIG A   1      23.536  22.791  10.031  1.00 20.00    +0.029 C 
ATOM     33 C33  LIG A   1      24.918  22.727  10.723  1.00 20.00    -0.034 C 
ATOM     34 C34  LIG A   1      25.143  21.855  11.975  1.00 20.00    -0.034 C 
ATOM     35 C35  LIG A   1      24.939  20.323  11.853  1.00 20.00    +0.085 C 
ATOM     36 C36  LIG A   1      25.425  19.597  13.107  1.00 20.00    +0.311 C 
ATOM     37 O37  LIG A   1      24.830  18.763  13.769  1.00 20.00    -0.252 OA
ATOM     38 O38  LIG A   1      26.700  19.909  13.431  1.00 20.00    -0.481 OA
ATOM     39 C39  LIG A   1      21.040  22.727  10.306  1.00 20.00    +0.246 C 
ATOM     40 O40  LIG A   1      20.001  23.060  10.891  1.00 20.00    -0.273 OA
ATOM     41 C41  LIG A   1      20.900  22.105   8.880  1.00 20.00    +0.088 C 
ATOM     42 N42  LIG A   1      20.734  23.236   7.930  1.00 20.00    -0.320 NA
ATOM     43 N43  LIG A   1      18.387  25.897  12.609  1.00 20.00    -0.330 NA
ATOM     44 C44  LIG A   1      19.711  25.526  13.105  1.00 20.00    -0.007 C 
ATOM     45 C45  LIG A   1      19.802  24.028  13.406  1.00 20.00    -0.029 C 
ATOM     46 C46  LIG A   1      19.833  23.145  12.156  1.00 20.00    -0.007 C 
ATOM     47 N47  LIG A   1      21.110  23.251  11.452  1.00 20.00    -0.330 NA
ATOM     48 H48  LIG A   1      19.484  21.365   6.576  1.00 20.00    +0.023 H 
ATOM     49 H49  LIG A   1      20.482  19.981   7.054  1.00 20.00    +0.023 H 
ATOM     50 H50  LIG A   1      18.716  19.914   7.205  1.00 20.00    +0.023 H 
ATOM     51 H51  LIG A   1      18.758  21.690   8.912  1.00 20.00    +0.032 H 
ATOM     52 H52  LIG A   1      18.863  20.134  10.503  1.00 20.00    +0.032 H 
ATOM     53 H53  LIG A   1      19.287  18.998   9.257  1.00 20.00    +0.032 H 
ATOM     54 H54  LIG A   1      21.889  18.655   8.774  1.00 20.00    +0.063 H 
ATOM     55 H55  LIG A   1      24.147  18.856   9.701  1.00 20.00    +0.063 H 
ATOM     56 H56  LIG A   1      20.251  20.467  12.312  1.00 20.00    +0.067 H 
ATOM     57 H57  LIG A   1      21.216  21.740  14.654  1.00 20.00    +0.105 H 
ATOM     58 H58  LIG A   1      18.913  23.000  13.617  1.00 20.00    +0.063 H 
ATOM     59 H59  LIG A   1      17.418  24.584  14.729  1.00 20.00    +0.064 H 
ATOM     60 H60  LIG A   1      17.284  26.434  16.198  1.00 20.00    +0.160 HD
ATOM     61 H61  LIG A   1      19.105  27.811  17.278  1.00 20.00    +0.049 H 
ATOM     62 H62  LIG A   1      19.082  28.768  15.778  1.00 20.00    +0.049 H 
ATOM     63 H63  LIG A   1      17.685  29.685  17.656  1.00 20.00    +0.030 H 
ATOM     64 H64  LIG A   1      16.629  28.285  17.552  1.00 20.00    +0.030 H 
ATOM     65 H65  LIG A   1      17.200  30.314  15.323  1.00 20.00    +0.043 H 
ATOM     66 H66  LIG A   1      15.784  30.347  16.339  1.00 20.00    +0.043 H 
ATOM     67 H67  LIG A   1      16.533  28.092  14.602  1.00 20.00    +0.122 HD
ATOM     68 H68  LIG A   1      14.403  27.325  14.663  1.00 20.00    +0.043 H 
ATOM     69 H69  LIG A   1      14.859  27.622  16.325  1.00 20.00    +0.043 H 
ATOM     70 H70  LIG A   1      13.650  29.908  16.136  1.00 20.00    +0.028 H 
ATOM     71 H71  LIG A   1      12.674  28.459  16.114  1.00 20.00    +0.028 H 
ATOM     72 H72  LIG A   1      11.835  30.013  14.498  1.00 20.00    +0.028 H 
ATOM     73 H73  LIG A   1      12.397  28.559  13.688  1.00 20.00    +0.028 H 
ATOM     74 H74  LIG A   1      14.068  31.130  13.856  1.00 20.00    +0.043 H 
ATOM     75 H75  LIG A   1      14.405  29.698  12.862  1.00 20.00    +0.043 H 
ATOM     76 H76  LIG A   1      13.387  31.401  11.606  1.00 20.00    +0.118 HD
ATOM     77 H77  LIG A   1      12.099  31.481  12.602  1.00 20.00    +0.118 HD
ATOM     78 H78  LIG A   1      20.710  27.311  15.249  1.00 20.00    +0.064 H 
ATOM     79 H79  LIG A   1      22.200  25.728  14.176  1.00 20.00    +0.063 H 
ATOM     80 H80  LIG A   1      23.466  21.890   9.424  1.00 20.00    +0.050 H 
ATOM     81 H81  LIG A   1      23.538  23.632   9.326  1.00 20.00    +0.050 H 
ATOM     82 H82  LIG A   1      25.213  23.750  10.987  1.00 20.00    +0.029 H 
ATOM     83 H83  LIG A   1      25.647  22.417   9.962  1.00 20.00    +0.029 H 
ATOM     84 H84  LIG A   1      26.190  22.029  12.263  1.00 20.00    +0.028 H 
ATOM     85 H85  LIG A   1      24.579  22.264  12.817  1.00 20.00    +0.028 H 
ATOM     86 H86  LIG A   1      25.604  19.973  11.051  1.00 20.00    +0.047 H 
ATOM     87 H87  LIG A   1      26.872  19.364  14.228  1.00 20.00    +0.296 HD
ATOM     88 H88  LIG A   1      21.793  21.566   8.573  1.00 20.00    +0.057 H 
ATOM     89 H89  LIG A   1      19.854  23.709   8.156  1.00 20.00    +0.119 HD
ATOM     90 H90  LIG A   1      21.459  23.935   8.091  1.00 20.00    +0.119 HD
ATOM     91 H91  LIG A   1      17.694  25.746  13.339  1.00 20.00    +0.118 HD
ATOM     92 H92  LIG A   1      18.377  26.896  12.407  1.00 20.00    +0.118 HD
ATOM     93 H93  LIG A   1      20.472  25.823  12.375  1.00 20.00    +0.043 H 
ATOM     94 H94  LIG A   1      19.907  26.088  14.024  1.00 20.00    +0.043 H 
ATOM     95 H95  LIG A   1      20.700  23.840  14.008  1.00 20.00    +0.029 H 
ATOM     96 H96  LIG A   1      18.951  23.729  14.032  1.00 20.00    +0.029 H 
ATOM     97 H97  LIG A   1      19.689  22.100  12.453  1.00 20.00    +0.043 H 
ATOM     98 H98  LIG A   1      19.016  23.405  11.475  1.00 20.00    +0.043 H 
ATOM     99 H99  LIG A   1      21.081  22.659  10.623  1.00 20.00    +0.118 HD
ATOM    100 H100 LIG A   1      21.857  22.885  12.040  1.00 20.00    +0.118 HD
ENDROOT
TORSDOF 0
                                                                                                       
ENDMDL
MODEL 4
REMARK VINA RESULT:   -10.054     10.898     14.756
REMARK INTER + INTRA:         -10.054
REMARK INTER:                 -10.054
REMARK INTRA:                   0.000
REMARK UNBOUND:                 0.000
ROOT
ATOM      1 C1   LIG A   1       6.469  17.393   0.905  1.00 20.00    -0.060 C 
ATOM      2 C2   LIG A   1       7.465  16.239   1.133  1.00 20.00    -0.016 C 
ATOM      3 C3   LIG A   1       6.700  15.052   1.815  1.00 20.00    -0.023 C 
ATOM      4 C4   LIG A   1       6.484  13.852   0.930  1.00 20.00    -0.044 A 
ATOM      5 C5   LIG A   1       5.587  13.896  -0.138  1.00 20.00    -0.058 A 
ATOM      6 C6   LIG A   1       5.702  12.971  -1.174  1.00 20.00    -0.054 A 
ATOM      7 C7   LIG A   1       6.738  12.019  -1.169  1.00 20.00    +0.009 A 
ATOM      8 C8   LIG A   1       7.532  11.889  -0.015  1.00 20.00    +0.130 A 
ATOM      9 C9   LIG A   1       7.351  12.761   1.059  1.00 20.00    -0.016 A 
ATOM     10 O10  LIG A   1       8.558  10.968  -0.026  1.00 20.00    -0.464 OA
ATOM     11 C11  LIG A   1       9.738  11.275   0.619  1.00 20.00    +0.104 C 
ATOM     12 C12  LIG A   1      10.692  12.158   0.255  1.00 20.00    +0.082 C 
ATOM     13 C13  LIG A   1      11.949  12.186   1.034  1.00 20.00    -0.010 A 
ATOM     14 C14  LIG A   1      11.932  12.483   2.403  1.00 20.00    -0.052 A 
ATOM     15 C15  LIG A   1      13.119  12.494   3.145  1.00 20.00    -0.038 A 
ATOM     16 C16  LIG A   1      14.355  12.195   2.556  1.00 20.00    +0.034 A 
ATOM     17 N17  LIG A   1      15.504  12.295   3.346  1.00 20.00    -0.385 NA
ATOM     18 C18  LIG A   1      16.781  11.792   2.846  1.00 20.00    +0.016 C 
ATOM     19 C19  LIG A   1      17.886  11.997   3.888  1.00 20.00    -0.023 C 
ATOM     20 C20  LIG A   1      18.311  13.462   4.064  1.00 20.00    -0.003 C 
ATOM     21 N21  LIG A   1      17.269  14.358   4.572  1.00 20.00    -0.317 NA
ATOM     22 C22  LIG A   1      16.980  14.206   5.997  1.00 20.00    -0.005 C 
ATOM     23 C23  LIG A   1      18.047  14.780   6.936  1.00 20.00    -0.039 C 
ATOM     24 C24  LIG A   1      18.093  16.311   7.024  1.00 20.00    -0.040 C 
ATOM     25 C25  LIG A   1      18.438  17.017   5.714  1.00 20.00    -0.008 C 
ATOM     26 N26  LIG A   1      18.684  18.437   5.968  1.00 20.00    -0.330 NA
ATOM     27 C27  LIG A   1      14.368  11.947   1.180  1.00 20.00    -0.038 A 
ATOM     28 C28  LIG A   1      13.183  11.925   0.432  1.00 20.00    -0.052 A 
ATOM     29 C29  LIG A   1      10.560  12.982  -0.999  1.00 20.00    +0.264 C 
ATOM     30 O30  LIG A   1      11.379  12.852  -1.911  1.00 20.00    -0.268 OA
ATOM     31 N31  LIG A   1       9.476  13.849  -1.073  1.00 20.00    -0.277 NA
ATOM     32 C32  LIG A   1       8.895  14.064  -2.404  1.00 20.00    +0.029 C 
ATOM     33 C33  LIG A   1       8.872  12.902  -3.424  1.00 20.00    -0.034 C 
ATOM     34 C34  LIG A   1       8.462  11.477  -3.001  1.00 20.00    -0.034 C 
ATOM     35 C35  LIG A   1       7.029  11.255  -2.453  1.00 20.00    +0.085 C 
ATOM     36 C36  LIG A   1       6.717   9.766  -2.304  1.00 20.00    +0.311 C 
ATOM     37 O37  LIG A   1       6.258   9.189  -1.332  1.00 20.00    -0.252 OA
ATOM     38 O38  LIG A   1       6.931   9.070  -3.443  1.00 20.00    -0.481 OA
ATOM     39 C39  LIG A   1       9.294  14.769  -0.026  1.00 20.00    +0.246 C 
ATOM     40 O40  LIG A   1       9.957  14.744   1.020  1.00 20.00    -0.273 OA
ATOM     41 C41  LIG A   1       8.247  15.916  -0.191  1.00 20.00    +0.088 C 
ATOM     42 N42  LIG A   1       8.993  17.121  -0.640  1.00 20.00    -0.320 NA
ATOM     43 N43  LIG A   1      13.415  14.608   2.295  1.00 20.00    -0.330 NA
ATOM     44 C44  LIG A   1      13.048  13.559   1.345  1.00 20.00    -0.007 C 
ATOM     45 C45  LIG A   1      11.750  12.859   1.751  1.00 20.00    -0.029 C 
ATOM     46 C46  LIG A   1      10.496  13.714   1.555  1.00 20.00    -0.007 C 
ATOM     47 N47  LIG A   1      10.166  13.871   0.140  1.00 20.00    -0.330 NA
ATOM     48 H48  LIG A   1       6.974  18.300   0.557  1.00 20.00    +0.023 H 
ATOM     49 H49  LIG A   1       5.710  17.123   0.163  1.00 20.00    +0.023 H 
ATOM     50 H50  LIG A   1       5.958  17.654   1.837  1.00 20.00    +0.023 H 
ATOM     51 H51  LIG A   1       8.186  16.605   1.878  1.00 20.00    +0.032 H 
ATOM     52 H52  LIG A   1       7.276  14.745   2.699  1.00 20.00    +0.032 H 
ATOM     53 H53  LIG A   1       5.731  15.377   2.212  1.00 20.00    +0.032 H 
ATOM     54 H54  LIG A   1       4.867  14.707  -0.222  1.00 20.00    +0.063 H 
ATOM     55 H55  LIG A   1       5.042  13.069  -2.034  1.00 20.00    +0.063 H 
ATOM     56 H56  LIG A   1       8.005  12.700   1.926  1.00 20.00    +0.067 H 
ATOM     57 H57  LIG A   1       9.851  10.600   1.461  1.00 20.00    +0.105 H 
ATOM     58 H58  LIG A   1      10.999  12.741   2.897  1.00 20.00    +0.063 H 
ATOM     59 H59  LIG A   1      13.070  12.760   4.199  1.00 20.00    +0.064 H 
ATOM     60 H60  LIG A   1      15.311  12.010   4.305  1.00 20.00    +0.160 HD
ATOM     61 H61  LIG A   1      16.694  10.720   2.631  1.00 20.00    +0.049 H 
ATOM     62 H62  LIG A   1      17.068  12.308   1.922  1.00 20.00    +0.049 H 
ATOM     63 H63  LIG A   1      18.769  11.436   3.554  1.00 20.00    +0.030 H 
ATOM     64 H64  LIG A   1      17.589  11.562   4.849  1.00 20.00    +0.030 H 
ATOM     65 H65  LIG A   1      18.620  13.851   3.085  1.00 20.00    +0.043 H 
ATOM     66 H66  LIG A   1      19.207  13.510   4.691  1.00 20.00    +0.043 H 
ATOM     67 H67  LIG A   1      16.408  14.152   4.045  1.00 20.00    +0.122 HD
ATOM     68 H68  LIG A   1      16.029  14.716   6.205  1.00 20.00    +0.043 H 
ATOM     69 H69  LIG A   1      16.810  13.152   6.243  1.00 20.00    +0.043 H 
ATOM     70 H70  LIG A   1      19.041  14.396   6.684  1.00 20.00    +0.028 H 
ATOM     71 H71  LIG A   1      17.833  14.407   7.946  1.00 20.00    +0.028 H 
ATOM     72 H72  LIG A   1      18.840  16.572   7.786  1.00 20.00    +0.028 H 
ATOM     73 H73  LIG A   1      17.130  16.682   7.397  1.00 20.00    +0.028 H 
ATOM     74 H74  LIG A   1      19.329  16.574   5.255  1.00 20.00    +0.043 H 
ATOM     75 H75  LIG A   1      17.609  16.939   5.006  1.00 20.00    +0.043 H 
ATOM     76 H76  LIG A   1      18.904  18.896   5.085  1.00 20.00    +0.118 HD
ATOM     77 H77  LIG A   1      19.510  18.536   6.556  1.00 20.00    +0.118 HD
ATOM     78 H78  LIG A   1      15.297  11.757   0.653  1.00 20.00    +0.064 H 
ATOM     79 H79  LIG A   1      13.242  11.706  -0.633  1.00 20.00    +0.063 H 
ATOM     80 H80  LIG A   1       7.861  14.387  -2.297  1.00 20.00    +0.050 H 
ATOM     81 H81  LIG A   1       9.432  14.910  -2.851  1.00 20.00    +0.050 H 
ATOM     82 H82  LIG A   1       9.869  12.828  -3.877  1.00 20.00    +0.029 H 
ATOM     83 H83  LIG A   1       8.216  13.210  -4.250  1.00 20.00    +0.029 H 
ATOM     84 H84  LIG A   1       8.569  10.864  -3.907  1.00 20.00    +0.028 H 
ATOM     85 H85  LIG A   1       9.213  11.061  -2.325  1.00 20.00    +0.028 H 
ATOM     86 H86  LIG A   1       6.331  11.612  -3.222  1.00 20.00    +0.047 H 
ATOM     87 H87  LIG A   1       6.676   8.154  -3.202  1.00 20.00    +0.296 HD
ATOM     88 H88  LIG A   1       7.511  15.698  -0.961  1.00 20.00    +0.057 H 
ATOM     89 H89  LIG A   1       9.638  17.387   0.110  1.00 20.00    +0.119 HD
ATOM     90 H90  LIG A   1       9.591  16.885  -1.432  1.00 20.00    +0.119 HD
ATOM     91 H91  LIG A   1      13.628  14.191   3.199  1.00 20.00    +0.118 HD
ATOM     92 H92  LIG A   1      14.274  15.057   1.978  1.00 20.00    +0.118 HD
ATOM     93 H93  LIG A   1      12.961  13.989   0.342  1.00 20.00    +0.043 H 
ATOM     94 H94  LIG A   1      13.858  12.823   1.313  1.00 20.00    +0.043 H 
ATOM     95 H95  LIG A   1      11.652  11.930   1.174  1.00 20.00    +0.029 H 
ATOM     96 H96  LIG A   1      11.812  12.555   2.804  1.00 20.00    +0.029 H 
ATOM     97 H97  LIG A   1       9.650  13.229   2.055  1.00 20.00    +0.043 H 
ATOM     98 H98  LIG A   1      10.622  14.700   2.013  1.00 20.00    +0.043 H 
ATOM     99 H99  LIG A   1       9.335  14.455   0.056  1.00 20.00    +0.118 HD
ATOM    100 H100 LIG A   1       9.920  12.965  -0.257  1.00 20.00    +0.118 HD
ENDROOT
TORSDOF 0
                                                                                                       
ENDMDL
MODEL 5
REMARK VINA RESULT:    -9.894      3.481     10.178
REMARK INTER + INTRA:          -9.894
REMARK INTER:                  -9.894
REMARK INTRA:                   0.000
REMARK UNBOUND:                 0.000
ROOT
ATOM      1 C1   LIG A   1      22.819  26.182   6.121  1.00 20.00    -0.060 C 
ATOM      2 C2   LIG A   1      22.690  24.924   7.001  1.00 20.00    -0.016 C 
ATOM      3 C3   LIG A   1      24.128  24.478   7.441  1.00 20.00    -0.023 C 
ATOM      4 C4   LIG A   1      24.435  24.698   8.900  1.00 20.00    -0.044 A 
ATOM      5 C5   LIG A   1      24.610  25.983   9.414  1.00 20.00    -0.058 A 
ATOM      6 C6   LIG A   1      24.471  26.204  10.783  1.00 20.00    -0.054 A 
ATOM      7 C7   LIG A   1      24.116  25.148  11.643  1.00 20.00    +0.009 A 
ATOM      8 C8   LIG A   1      24.099  23.837  11.134  1.00 20.00    +0.130 A 
ATOM      9 C9   LIG A   1      24.330  23.612   9.777  1.00 20.00    -0.016 A 
ATOM     10 O10  LIG A   1      23.731  22.811  11.979  1.00 20.00    -0.464 OA
ATOM     11 C11  LIG A   1      22.986  21.765  11.475  1.00 20.00    +0.104 C 
ATOM     12 C12  LIG A   1      21.689  21.758  11.102  1.00 20.00    +0.082 C 
ATOM     13 C13  LIG A   1      21.074  20.461  10.745  1.00 20.00    -0.010 A 
ATOM     14 C14  LIG A   1      21.578  19.703   9.680  1.00 20.00    -0.052 A 
ATOM     15 C15  LIG A   1      21.007  18.468   9.351  1.00 20.00    -0.038 A 
ATOM     16 C16  LIG A   1      19.931  17.940  10.078  1.00 20.00    +0.034 A 
ATOM     17 N17  LIG A   1      19.371  16.735   9.646  1.00 20.00    -0.385 NA
ATOM     18 C18  LIG A   1      18.396  16.039  10.483  1.00 20.00    +0.016 C 
ATOM     19 C19  LIG A   1      17.938  14.741   9.812  1.00 20.00    -0.023 C 
ATOM     20 C20  LIG A   1      17.025  14.959   8.596  1.00 20.00    -0.003 C 
ATOM     21 N21  LIG A   1      17.644  15.661   7.468  1.00 20.00    -0.317 NA
ATOM     22 C22  LIG A   1      18.587  14.855   6.695  1.00 20.00    -0.005 C 
ATOM     23 C23  LIG A   1      17.940  13.800   5.790  1.00 20.00    -0.039 C 
ATOM     24 C24  LIG A   1      17.246  14.343   4.535  1.00 20.00    -0.040 C 
ATOM     25 C25  LIG A   1      16.062  15.267   4.807  1.00 20.00    -0.008 C 
ATOM     26 N26  LIG A   1      15.342  15.530   3.560  1.00 20.00    -0.330 NA
ATOM     27 C27  LIG A   1      19.404  18.726  11.108  1.00 20.00    -0.038 A 
ATOM     28 C28  LIG A   1      19.976  19.960  11.449  1.00 20.00    -0.052 A 
ATOM     29 C29  LIG A   1      20.839  22.998  11.197  1.00 20.00    +0.264 C 
ATOM     30 O30  LIG A   1      19.856  23.017  11.939  1.00 20.00    -0.268 OA
ATOM     31 N31  LIG A   1      21.237  24.094  10.440  1.00 20.00    -0.277 NA
ATOM     32 C32  LIG A   1      20.973  25.420  11.012  1.00 20.00    +0.029 C 
ATOM     33 C33  LIG A   1      21.053  25.621  12.543  1.00 20.00    -0.034 C 
ATOM     34 C34  LIG A   1      22.209  25.019  13.366  1.00 20.00    -0.034 C 
ATOM     35 C35  LIG A   1      23.656  25.484  13.055  1.00 20.00    +0.085 C 
ATOM     36 C36  LIG A   1      24.641  24.973  14.105  1.00 20.00    +0.311 C 
ATOM     37 O37  LIG A   1      25.700  24.395  13.922  1.00 20.00    -0.252 OA
ATOM     38 O38  LIG A   1      24.274  25.292  15.366  1.00 20.00    -0.481 OA
ATOM     39 C39  LIG A   1      21.435  23.907   9.060  1.00 20.00    +0.246 C 
ATOM     40 O40  LIG A   1      21.420  22.794   8.520  1.00 20.00    -0.273 OA
ATOM     41 C41  LIG A   1      21.635  25.154   8.142  1.00 20.00    +0.088 C 
ATOM     42 N42  LIG A   1      20.311  25.468   7.544  1.00 20.00    -0.320 NA
ATOM     43 N43  LIG A   1      19.427  19.703   8.230  1.00 20.00    -0.330 NA
ATOM     44 C44  LIG A   1      19.750  20.124   9.593  1.00 20.00    -0.007 C 
ATOM     45 C45  LIG A   1      21.247  20.398   9.758  1.00 20.00    -0.029 C 
ATOM     46 C46  LIG A   1      21.723  21.677   9.067  1.00 20.00    -0.007 C 
ATOM     47 N47  LIG A   1      21.256  22.874   9.763  1.00 20.00    -0.330 NA
ATOM     48 H48  LIG A   1      21.860  26.461   5.671  1.00 20.00    +0.023 H 
ATOM     49 H49  LIG A   1      23.182  27.038   6.700  1.00 20.00    +0.023 H 
ATOM     50 H50  LIG A   1      23.517  26.008   5.296  1.00 20.00    +0.023 H 
ATOM     51 H51  LIG A   1      22.314  24.129   6.339  1.00 20.00    +0.032 H 
ATOM     52 H52  LIG A   1      24.234  23.409   7.212  1.00 20.00    +0.032 H 
ATOM     53 H53  LIG A   1      24.901  24.971   6.840  1.00 20.00    +0.032 H 
ATOM     54 H54  LIG A   1      24.752  26.830   8.747  1.00 20.00    +0.063 H 
ATOM     55 H55  LIG A   1      24.535  27.225  11.155  1.00 20.00    +0.063 H 
ATOM     56 H56  LIG A   1      24.257  22.605   9.371  1.00 20.00    +0.067 H 
ATOM     57 H57  LIG A   1      23.593  20.866  11.510  1.00 20.00    +0.105 H 
ATOM     58 H58  LIG A   1      22.398  20.081   9.076  1.00 20.00    +0.063 H 
ATOM     59 H59  LIG A   1      21.406  17.922   8.498  1.00 20.00    +0.064 H 
ATOM     60 H60  LIG A   1      20.087  16.116   9.270  1.00 20.00    +0.160 HD
ATOM     61 H61  LIG A   1      18.854  15.793  11.450  1.00 20.00    +0.049 H 
ATOM     62 H62  LIG A   1      17.519  16.671  10.667  1.00 20.00    +0.049 H 
ATOM     63 H63  LIG A   1      17.367  14.165  10.552  1.00 20.00    +0.030 H 
ATOM     64 H64  LIG A   1      18.803  14.125   9.541  1.00 20.00    +0.030 H 
ATOM     65 H65  LIG A   1      16.164  15.560   8.915  1.00 20.00    +0.043 H 
ATOM     66 H66  LIG A   1      16.607  13.999   8.276  1.00 20.00    +0.043 H 
ATOM     67 H67  LIG A   1      18.153  16.468   7.857  1.00 20.00    +0.122 HD
ATOM     68 H68  LIG A   1      19.174  15.535   6.064  1.00 20.00    +0.043 H 
ATOM     69 H69  LIG A   1      19.310  14.368   7.359  1.00 20.00    +0.043 H 
ATOM     70 H70  LIG A   1      17.242  13.172   6.353  1.00 20.00    +0.028 H 
ATOM     71 H71  LIG A   1      18.736  13.124   5.450  1.00 20.00    +0.028 H 
ATOM     72 H72  LIG A   1      16.907  13.478   3.948  1.00 20.00    +0.028 H 
ATOM     73 H73  LIG A   1      17.983  14.867   3.911  1.00 20.00    +0.028 H 
ATOM     74 H74  LIG A   1      15.374  14.816   5.531  1.00 20.00    +0.043 H 
ATOM     75 H75  LIG A   1      16.405  16.225   5.207  1.00 20.00    +0.043 H 
ATOM     76 H76  LIG A   1      14.560  16.154   3.756  1.00 20.00    +0.118 HD
ATOM     77 H77  LIG A   1      14.936  14.661   3.216  1.00 20.00    +0.118 HD
ATOM     78 H78  LIG A   1      18.540  18.399  11.677  1.00 20.00    +0.064 H 
ATOM     79 H79  LIG A   1      19.543  20.525  12.272  1.00 20.00    +0.063 H 
ATOM     80 H80  LIG A   1      21.663  26.143  10.580  1.00 20.00    +0.050 H 
ATOM     81 H81  LIG A   1      19.972  25.718  10.673  1.00 20.00    +0.050 H 
ATOM     82 H82  LIG A   1      20.119  25.250  12.984  1.00 20.00    +0.029 H 
ATOM     83 H83  LIG A   1      21.035  26.703  12.729  1.00 20.00    +0.029 H 
ATOM     84 H84  LIG A   1      21.992  25.289  14.410  1.00 20.00    +0.028 H 
ATOM     85 H85  LIG A   1      22.136  23.929  13.368  1.00 20.00    +0.028 H 
ATOM     86 H86  LIG A   1      23.672  26.577  13.162  1.00 20.00    +0.047 H 
ATOM     87 H87  LIG A   1      24.997  24.921  15.915  1.00 20.00    +0.296 HD
ATOM     88 H88  LIG A   1      21.944  26.035   8.699  1.00 20.00    +0.057 H 
ATOM     89 H89  LIG A   1      20.040  24.678   6.950  1.00 20.00    +0.119 HD
ATOM     90 H90  LIG A   1      19.600  25.505   8.274  1.00 20.00    +0.119 HD
ATOM     91 H91  LIG A   1      19.869  18.807   8.036  1.00 20.00    +0.118 HD
ATOM     92 H92  LIG A   1      18.422  19.547   8.162  1.00 20.00    +0.118 HD
ATOM     93 H93  LIG A   1      19.161  21.010   9.852  1.00 20.00    +0.043 H 
ATOM     94 H94  LIG A   1      19.455  19.325  10.281  1.00 20.00    +0.043 H 
ATOM     95 H95  LIG A   1      21.481  20.454  10.829  1.00 20.00    +0.029 H 
ATOM     96 H96  LIG A   1      21.820  19.547   9.368  1.00 20.00    +0.029 H 
ATOM     97 H97  LIG A   1      22.819  21.691   9.055  1.00 20.00    +0.043 H 
ATOM     98 H98  LIG A   1      21.387  21.705   8.025  1.00 20.00    +0.043 H 
ATOM     99 H99  LIG A   1      21.585  23.699   9.263  1.00 20.00    +0.118 HD
ATOM    100 H100 LIG A   1      21.675  22.916  10.691  1.00 20.00    +0.118 HD
ENDROOT
TORSDOF 0
                                                                                                       
ENDMDL
MODEL 6
REMARK VINA RESULT:    -9.799      3.258      9.401
REMARK INTER + INTRA:          -9.799
REMARK INTER:                  -9.799
REMARK INTRA:                   0.000
REMARK UNBOUND:                 0.000
ROOT
ATOM      1 C1   LIG A   1      22.321  23.540  15.102  1.00 20.00    -0.060 C 
ATOM      2 C2   LIG A   1      21.699  22.695  13.973  1.00 20.00    -0.016 C 
ATOM      3 C3   LIG A   1      20.390  23.408  13.484  1.00 20.00    -0.023 C 
ATOM      4 C4   LIG A   1      20.485  24.025  12.113  1.00 20.00    -0.044 A 
ATOM      5 C5   LIG A   1      21.261  25.162  11.886  1.00 20.00    -0.058 A 
ATOM      6 C6   LIG A   1      21.678  25.466  10.591  1.00 20.00    -0.054 A 
ATOM      7 C7   LIG A   1      21.354  24.614   9.519  1.00 20.00    +0.009 A 
ATOM      8 C8   LIG A   1      20.444  23.564   9.740  1.00 20.00    +0.130 A 
ATOM      9 C9   LIG A   1      19.957  23.320  11.024  1.00 20.00    -0.016 A 
ATOM     10 O10  LIG A   1      20.148  22.723   8.689  1.00 20.00    -0.464 OA
ATOM     11 C11  LIG A   1      19.954  21.380   8.943  1.00 20.00    +0.104 C 
ATOM     12 C12  LIG A   1      20.870  20.445   9.273  1.00 20.00    +0.082 C 
ATOM     13 C13  LIG A   1      20.432  19.033   9.333  1.00 20.00    -0.010 A 
ATOM     14 C14  LIG A   1      19.429  18.636  10.226  1.00 20.00    -0.052 A 
ATOM     15 C15  LIG A   1      19.002  17.303  10.273  1.00 20.00    -0.038 A 
ATOM     16 C16  LIG A   1      19.546  16.329   9.425  1.00 20.00    +0.034 A 
ATOM     17 N17  LIG A   1      19.119  15.007   9.579  1.00 20.00    -0.385 NA
ATOM     18 C18  LIG A   1      19.490  13.998   8.589  1.00 20.00    +0.016 C 
ATOM     19 C19  LIG A   1      18.897  12.635   8.960  1.00 20.00    -0.023 C 
ATOM     20 C20  LIG A   1      19.570  11.973  10.172  1.00 20.00    -0.003 C 
ATOM     21 N21  LIG A   1      19.432  12.700  11.437  1.00 20.00    -0.317 NA
ATOM     22 C22  LIG A   1      18.106  12.610  12.046  1.00 20.00    -0.005 C 
ATOM     23 C23  LIG A   1      17.784  11.258  12.692  1.00 20.00    -0.039 C 
ATOM     24 C24  LIG A   1      18.503  10.971  14.016  1.00 20.00    -0.040 C 
ATOM     25 C25  LIG A   1      20.024  10.897  13.915  1.00 20.00    -0.008 C 
ATOM     26 N26  LIG A   1      20.580  10.391  15.172  1.00 20.00    -0.330 NA
ATOM     27 C27  LIG A   1      20.580  16.725   8.571  1.00 20.00    -0.038 A 
ATOM     28 C28  LIG A   1      21.007  18.059   8.512  1.00 20.00    -0.052 A 
ATOM     29 C29  LIG A   1      22.328  20.792   9.421  1.00 20.00    +0.264 C 
ATOM     30 O30  LIG A   1      23.163  20.279   8.675  1.00 20.00    -0.268 OA
ATOM     31 N31  LIG A   1      22.658  21.720  10.402  1.00 20.00    -0.277 NA
ATOM     32 C32  LIG A   1      23.795  22.604  10.116  1.00 20.00    +0.029 C 
ATOM     33 C33  LIG A   1      24.055  23.068   8.664  1.00 20.00    -0.034 C 
ATOM     34 C34  LIG A   1      22.901  23.547   7.761  1.00 20.00    -0.034 C 
ATOM     35 C35  LIG A   1      22.091  24.794   8.200  1.00 20.00    +0.085 C 
ATOM     36 C36  LIG A   1      21.151  25.264   7.090  1.00 20.00    +0.311 C 
ATOM     37 O37  LIG A   1      19.961  25.520   7.172  1.00 20.00    -0.252 OA
ATOM     38 O38  LIG A   1      21.789  25.468   5.915  1.00 20.00    -0.481 OA
ATOM     39 C39  LIG A   1      22.218  21.478  11.715  1.00 20.00    +0.246 C 
ATOM     40 O40  LIG A   1      21.432  20.568  12.008  1.00 20.00    -0.273 OA
ATOM     41 C41  LIG A   1      22.775  22.356  12.881  1.00 20.00    +0.088 C 
ATOM     42 N42  LIG A   1      23.894  21.595  13.498  1.00 20.00    -0.320 NA
ATOM     43 N43  LIG A   1      20.851  16.949  11.589  1.00 20.00    -0.330 NA
ATOM     44 C44  LIG A   1      21.054  17.706  10.355  1.00 20.00    -0.007 C 
ATOM     45 C45  LIG A   1      20.141  18.932  10.288  1.00 20.00    -0.029 C 
ATOM     46 C46  LIG A   1      20.541  20.057  11.245  1.00 20.00    -0.007 C 
ATOM     47 N47  LIG A   1      21.760  20.732  10.806  1.00 20.00    -0.330 NA
ATOM     48 H48  LIG A   1      23.162  23.024  15.576  1.00 20.00    +0.023 H 
ATOM     49 H49  LIG A   1      22.683  24.503  14.725  1.00 20.00    +0.023 H 
ATOM     50 H50  LIG A   1      21.585  23.737  15.889  1.00 20.00    +0.023 H 
ATOM     51 H51  LIG A   1      21.375  21.754  14.442  1.00 20.00    +0.032 H 
ATOM     52 H52  LIG A   1      19.581  22.665  13.486  1.00 20.00    +0.032 H 
ATOM     53 H53  LIG A   1      20.064  24.176  14.195  1.00 20.00    +0.032 H 
ATOM     54 H54  LIG A   1      21.630  25.754  12.720  1.00 20.00    +0.063 H 
ATOM     55 H55  LIG A   1      22.346  26.313  10.445  1.00 20.00    +0.063 H 
ATOM     56 H56  LIG A   1      19.301  22.472  11.206  1.00 20.00    +0.067 H 
ATOM     57 H57  LIG A   1      18.916  21.140   8.734  1.00 20.00    +0.105 H 
ATOM     58 H58  LIG A   1      18.992  19.353  10.916  1.00 20.00    +0.063 H 
ATOM     59 H59  LIG A   1      18.242  17.026  11.001  1.00 20.00    +0.064 H 
ATOM     60 H60  LIG A   1      18.133  14.971   9.833  1.00 20.00    +0.160 HD
ATOM     61 H61  LIG A   1      19.107  14.293   7.604  1.00 20.00    +0.049 H 
ATOM     62 H62  LIG A   1      20.580  13.902   8.522  1.00 20.00    +0.049 H 
ATOM     63 H63  LIG A   1      19.035  11.965   8.101  1.00 20.00    +0.030 H 
ATOM     64 H64  LIG A   1      17.816  12.719   9.116  1.00 20.00    +0.030 H 
ATOM     65 H65  LIG A   1      20.645  11.889   9.965  1.00 20.00    +0.043 H 
ATOM     66 H66  LIG A   1      19.212  10.943  10.271  1.00 20.00    +0.043 H 
ATOM     67 H67  LIG A   1      19.630  13.691  11.240  1.00 20.00    +0.122 HD
ATOM     68 H68  LIG A   1      18.038  13.386  12.821  1.00 20.00    +0.043 H 
ATOM     69 H69  LIG A   1      17.330  12.855  11.312  1.00 20.00    +0.043 H 
ATOM     70 H70  LIG A   1      17.961  10.434  11.992  1.00 20.00    +0.028 H 
ATOM     71 H71  LIG A   1      16.706  11.241  12.901  1.00 20.00    +0.028 H 
ATOM     72 H72  LIG A   1      18.115  10.017  14.398  1.00 20.00    +0.028 H 
ATOM     73 H73  LIG A   1      18.222  11.734  14.754  1.00 20.00    +0.028 H 
ATOM     74 H74  LIG A   1      20.329  10.237  13.095  1.00 20.00    +0.043 H 
ATOM     75 H75  LIG A   1      20.447  11.889  13.735  1.00 20.00    +0.043 H 
ATOM     76 H76  LIG A   1      21.595  10.355  15.092  1.00 20.00    +0.118 HD
ATOM     77 H77  LIG A   1      20.269   9.432  15.314  1.00 20.00    +0.118 HD
ATOM     78 H78  LIG A   1      21.079  16.010   7.924  1.00 20.00    +0.064 H 
ATOM     79 H79  LIG A   1      21.801  18.323   7.816  1.00 20.00    +0.063 H 
ATOM     80 H80  LIG A   1      23.703  23.513  10.707  1.00 20.00    +0.050 H 
ATOM     81 H81  LIG A   1      24.694  22.093  10.485  1.00 20.00    +0.050 H 
ATOM     82 H82  LIG A   1      24.561  22.252   8.132  1.00 20.00    +0.029 H 
ATOM     83 H83  LIG A   1      24.802  23.872   8.710  1.00 20.00    +0.029 H 
ATOM     84 H84  LIG A   1      23.367  23.778   6.793  1.00 20.00    +0.028 H 
ATOM     85 H85  LIG A   1      22.239  22.708   7.528  1.00 20.00    +0.028 H 
ATOM     86 H86  LIG A   1      22.809  25.616   8.325  1.00 20.00    +0.047 H 
ATOM     87 H87  LIG A   1      21.074  25.777   5.319  1.00 20.00    +0.296 HD
ATOM     88 H88  LIG A   1      23.192  23.296  12.529  1.00 20.00    +0.057 H 
ATOM     89 H89  LIG A   1      23.503  20.740  13.905  1.00 20.00    +0.119 HD
ATOM     90 H90  LIG A   1      24.537  21.275  12.775  1.00 20.00    +0.119 HD
ATOM     91 H91  LIG A   1      19.910  16.561  11.602  1.00 20.00    +0.118 HD
ATOM     92 H92  LIG A   1      21.489  16.154  11.599  1.00 20.00    +0.118 HD
ATOM     93 H93  LIG A   1      22.106  17.999  10.274  1.00 20.00    +0.043 H 
ATOM     94 H94  LIG A   1      20.835  17.049   9.506  1.00 20.00    +0.043 H 
ATOM     95 H95  LIG A   1      20.134  19.314   9.259  1.00 20.00    +0.029 H 
ATOM     96 H96  LIG A   1      19.108  18.630  10.504  1.00 20.00    +0.029 H 
ATOM     97 H97  LIG A   1      19.732  20.796  11.287  1.00 20.00    +0.043 H 
ATOM     98 H98  LIG A   1      20.681  19.672  12.261  1.00 20.00    +0.043 H 
ATOM     99 H99  LIG A   1      21.995  21.462  11.477  1.00 20.00    +0.118 HD
ATOM    100 H100 LIG A   1      21.590  21.203   9.919  1.00 20.00    +0.118 HD
ENDROOT
TORSDOF 0
                                                                                                       
ENDMDL
MODEL 7
REMARK VINA RESULT:    -9.693      4.519     12.155
REMARK INTER + INTRA:          -9.693
REMARK INTER:                  -9.693
REMARK INTRA:                   0.000
REMARK UNBOUND:                 0.000
ROOT
ATOM      1 C1   LIG A   1      18.149  30.146   9.699  1.00 20.00    -0.060 C 
ATOM      2 C2   LIG A   1      18.999  28.983  10.247  1.00 20.00    -0.016 C 
ATOM      3 C3   LIG A   1      20.482  29.474  10.383  1.00 20.00    -0.023 C 
ATOM      4 C4   LIG A   1      20.956  29.658  11.802  1.00 20.00    -0.044 A 
ATOM      5 C5   LIG A   1      20.473  30.700  12.594  1.00 20.00    -0.058 A 
ATOM      6 C6   LIG A   1      20.578  30.618  13.981  1.00 20.00    -0.054 A 
ATOM      7 C7   LIG A   1      21.131  29.475  14.589  1.00 20.00    +0.009 A 
ATOM      8 C8   LIG A   1      21.751  28.510  13.775  1.00 20.00    +0.130 A 
ATOM      9 C9   LIG A   1      21.724  28.644  12.387  1.00 20.00    -0.016 A 
ATOM     10 O10  LIG A   1      22.272  27.384  14.377  1.00 20.00    -0.464 OA
ATOM     11 C11  LIG A   1      22.176  26.173  13.724  1.00 20.00    +0.104 C 
ATOM     12 C12  LIG A   1      21.081  25.409  13.523  1.00 20.00    +0.082 C 
ATOM     13 C13  LIG A   1      21.269  24.065  12.932  1.00 20.00    -0.010 A 
ATOM     14 C14  LIG A   1      21.835  23.919  11.659  1.00 20.00    -0.052 A 
ATOM     15 C15  LIG A   1      22.028  22.648  11.106  1.00 20.00    -0.038 A 
ATOM     16 C16  LIG A   1      21.680  21.484  11.805  1.00 20.00    +0.034 A 
ATOM     17 N17  LIG A   1      21.838  20.254  11.158  1.00 20.00    -0.385 NA
ATOM     18 C18  LIG A   1      21.695  19.009  11.909  1.00 20.00    +0.016 C 
ATOM     19 C19  LIG A   1      21.926  17.800  10.997  1.00 20.00    -0.023 C 
ATOM     20 C20  LIG A   1      20.789  17.552   9.995  1.00 20.00    -0.003 C 
ATOM     21 N21  LIG A   1      20.580  18.617   9.010  1.00 20.00    -0.317 NA
ATOM     22 C22  LIG A   1      21.587  18.670   7.951  1.00 20.00    -0.005 C 
ATOM     23 C23  LIG A   1      21.473  17.562   6.898  1.00 20.00    -0.039 C 
ATOM     24 C24  LIG A   1      20.307  17.706   5.913  1.00 20.00    -0.040 C 
ATOM     25 C25  LIG A   1      18.920  17.655   6.549  1.00 20.00    -0.008 C 
ATOM     26 N26  LIG A   1      17.899  17.565   5.504  1.00 20.00    -0.330 NA
ATOM     27 C27  LIG A   1      21.072  21.641  13.054  1.00 20.00    -0.038 A 
ATOM     28 C28  LIG A   1      20.884  22.910  13.618  1.00 20.00    -0.052 A 
ATOM     29 C29  LIG A   1      19.727  25.832  14.026  1.00 20.00    +0.264 C 
ATOM     30 O30  LIG A   1      19.139  25.147  14.865  1.00 20.00    -0.268 OA
ATOM     31 N31  LIG A   1      19.210  27.020  13.522  1.00 20.00    -0.277 NA
ATOM     32 C32  LIG A   1      18.379  27.815  14.434  1.00 20.00    +0.029 C 
ATOM     33 C33  LIG A   1      18.705  27.834  15.946  1.00 20.00    -0.034 C 
ATOM     34 C34  LIG A   1      20.156  27.984  16.445  1.00 20.00    -0.034 C 
ATOM     35 C35  LIG A   1      20.930  29.278  16.085  1.00 20.00    +0.085 C 
ATOM     36 C36  LIG A   1      22.252  29.365  16.846  1.00 20.00    +0.311 C 
ATOM     37 O37  LIG A   1      23.363  29.595  16.397  1.00 20.00    -0.252 OA
ATOM     38 O38  LIG A   1      22.096  29.231  18.182  1.00 20.00    -0.481 OA
ATOM     39 C39  LIG A   1      19.129  27.166  12.126  1.00 20.00    +0.246 C 
ATOM     40 O40  LIG A   1      19.629  26.359  11.332  1.00 20.00    -0.273 OA
ATOM     41 C41  LIG A   1      18.332  28.369  11.530  1.00 20.00    +0.088 C 
ATOM     42 N42  LIG A   1      16.974  27.864  11.196  1.00 20.00    -0.320 NA
ATOM     43 N43  LIG A   1      19.806  22.763  10.529  1.00 20.00    -0.330 NA
ATOM     44 C44  LIG A   1      20.152  23.124  11.904  1.00 20.00    -0.007 C 
ATOM     45 C45  LIG A   1      21.194  24.244  11.948  1.00 20.00    -0.029 C 
ATOM     46 C46  LIG A   1      20.649  25.615  11.543  1.00 20.00    -0.007 C 
ATOM     47 N47  LIG A   1      19.765  26.168  12.567  1.00 20.00    -0.330 NA
ATOM     48 H48  LIG A   1      17.132  29.822   9.453  1.00 20.00    +0.023 H 
ATOM     49 H49  LIG A   1      18.079  30.963  10.424  1.00 20.00    +0.023 H 
ATOM     50 H50  LIG A   1      18.586  30.544   8.777  1.00 20.00    +0.023 H 
ATOM     51 H51  LIG A   1      19.004  28.214   9.460  1.00 20.00    +0.032 H 
ATOM     52 H52  LIG A   1      21.128  28.739   9.884  1.00 20.00    +0.032 H 
ATOM     53 H53  LIG A   1      20.646  30.409   9.833  1.00 20.00    +0.032 H 
ATOM     54 H54  LIG A   1      19.925  31.526  12.147  1.00 20.00    +0.063 H 
ATOM     55 H55  LIG A   1      20.128  31.404  14.584  1.00 20.00    +0.063 H 
ATOM     56 H56  LIG A   1      22.150  27.867  11.756  1.00 20.00    +0.067 H 
ATOM     57 H57  LIG A   1      23.178  25.848  13.459  1.00 20.00    +0.105 H 
ATOM     58 H58  LIG A   1      22.101  24.795  11.073  1.00 20.00    +0.063 H 
ATOM     59 H59  LIG A   1      22.441  22.576  10.102  1.00 20.00    +0.064 H 
ATOM     60 H60  LIG A   1      22.659  20.264  10.555  1.00 20.00    +0.160 HD
ATOM     61 H61  LIG A   1      22.433  18.985  12.721  1.00 20.00    +0.049 H 
ATOM     62 H62  LIG A   1      20.694  18.934  12.350  1.00 20.00    +0.049 H 
ATOM     63 H63  LIG A   1      22.002  16.910  11.635  1.00 20.00    +0.030 H 
ATOM     64 H64  LIG A   1      22.887  17.891  10.478  1.00 20.00    +0.030 H 
ATOM     65 H65  LIG A   1      19.852  17.445  10.557  1.00 20.00    +0.043 H 
ATOM     66 H66  LIG A   1      20.943  16.587   9.500  1.00 20.00    +0.043 H 
ATOM     67 H67  LIG A   1      20.604  19.511   9.522  1.00 20.00    +0.122 HD
ATOM     68 H68  LIG A   1      21.490  19.638   7.442  1.00 20.00    +0.043 H 
ATOM     69 H69  LIG A   1      22.595  18.660   8.380  1.00 20.00    +0.043 H 
ATOM     70 H70  LIG A   1      21.436  16.573   7.369  1.00 20.00    +0.028 H 
ATOM     71 H71  LIG A   1      22.398  17.573   6.306  1.00 20.00    +0.028 H 
ATOM     72 H72  LIG A   1      20.400  16.896   5.175  1.00 20.00    +0.028 H 
ATOM     73 H73  LIG A   1      20.419  18.645   5.354  1.00 20.00    +0.028 H 
ATOM     74 H74  LIG A   1      18.829  16.791   7.217  1.00 20.00    +0.043 H 
ATOM     75 H75  LIG A   1      18.730  18.562   7.130  1.00 20.00    +0.043 H 
ATOM     76 H76  LIG A   1      16.980  17.540   5.944  1.00 20.00    +0.118 HD
ATOM     77 H77  LIG A   1      18.003  16.682   5.008  1.00 20.00    +0.118 HD
ATOM     78 H78  LIG A   1      20.734  20.783  13.626  1.00 20.00    +0.064 H 
ATOM     79 H79  LIG A   1      20.425  22.981  14.603  1.00 20.00    +0.063 H 
ATOM     80 H80  LIG A   1      18.386  28.856  14.115  1.00 20.00    +0.050 H 
ATOM     81 H81  LIG A   1      17.345  27.467  14.306  1.00 20.00    +0.050 H 
ATOM     82 H82  LIG A   1      18.306  26.914  16.391  1.00 20.00    +0.029 H 
ATOM     83 H83  LIG A   1      18.109  28.639  16.396  1.00 20.00    +0.029 H 
ATOM     84 H84  LIG A   1      20.091  27.932  17.542  1.00 20.00    +0.028 H 
ATOM     85 H85  LIG A   1      20.733  27.093  16.185  1.00 20.00    +0.028 H 
ATOM     86 H86  LIG A   1      20.335  30.124  16.458  1.00 20.00    +0.047 H 
ATOM     87 H87  LIG A   1      23.009  29.324  18.529  1.00 20.00    +0.296 HD
ATOM     88 H88  LIG A   1      18.198  29.175  12.247  1.00 20.00    +0.057 H 
ATOM     89 H89  LIG A   1      17.075  27.156  10.461  1.00 20.00    +0.119 HD
ATOM     90 H90  LIG A   1      16.583  27.364  11.993  1.00 20.00    +0.119 HD
ATOM     91 H91  LIG A   1      20.621  22.366  10.065  1.00 20.00    +0.118 HD
ATOM     92 H92  LIG A   1      19.101  22.028  10.548  1.00 20.00    +0.118 HD
ATOM     93 H93  LIG A   1      19.245  23.414  12.445  1.00 20.00    +0.043 H 
ATOM     94 H94  LIG A   1      20.558  22.238  12.402  1.00 20.00    +0.043 H 
ATOM     95 H95  LIG A   1      21.610  24.302  12.962  1.00 20.00    +0.029 H 
ATOM     96 H96  LIG A   1      22.035  23.987  11.291  1.00 20.00    +0.029 H 
ATOM     97 H97  LIG A   1      21.487  26.306  11.401  1.00 20.00    +0.043 H 
ATOM     98 H98  LIG A   1      20.113  25.555  10.590  1.00 20.00    +0.043 H 
ATOM     99 H99  LIG A   1      19.416  27.073  12.251  1.00 20.00    +0.118 HD
ATOM    100 H100 LIG A   1      20.296  26.348  13.417  1.00 20.00    +0.118 HD
ENDROOT
TORSDOF 0
                                                                                                       
ENDMDL
MODEL 8
REMARK VINA RESULT:    -9.654      3.324      9.890
REMARK INTER + INTRA:          -9.654
REMARK INTER:                  -9.654
REMARK INTRA:                   0.000
REMARK UNBOUND:                 0.000
ROOT
ATOM      1 C1   LIG A   1      23.003  24.381   5.853  1.00 20.00    -0.060 C 
ATOM      2 C2   LIG A   1      22.717  23.072   6.615  1.00 20.00    -0.016 C 
ATOM      3 C3   LIG A   1      24.077  22.499   7.143  1.00 20.00    -0.023 C 
ATOM      4 C4   LIG A   1      24.260  22.588   8.636  1.00 20.00    -0.044 A 
ATOM      5 C5   LIG A   1      24.464  23.817   9.265  1.00 20.00    -0.058 A 
ATOM      6 C6   LIG A   1      24.212  23.944  10.630  1.00 20.00    -0.054 A 
ATOM      7 C7   LIG A   1      23.715  22.854  11.368  1.00 20.00    +0.009 A 
ATOM      8 C8   LIG A   1      23.666  21.588  10.755  1.00 20.00    +0.130 A 
ATOM      9 C9   LIG A   1      24.009  21.450   9.411  1.00 20.00    -0.016 A 
ATOM     10 O10  LIG A   1      23.160  20.530  11.480  1.00 20.00    -0.464 OA
ATOM     11 C11  LIG A   1      22.403  19.578  10.830  1.00 20.00    +0.104 C 
ATOM     12 C12  LIG A   1      21.147  19.686  10.345  1.00 20.00    +0.082 C 
ATOM     13 C13  LIG A   1      20.491  18.463   9.832  1.00 20.00    -0.010 A 
ATOM     14 C14  LIG A   1      21.045  17.754   8.759  1.00 20.00    -0.052 A 
ATOM     15 C15  LIG A   1      20.434  16.588   8.283  1.00 20.00    -0.038 A 
ATOM     16 C16  LIG A   1      19.265  16.082   8.867  1.00 20.00    +0.034 A 
ATOM     17 N17  LIG A   1      18.675  14.953   8.292  1.00 20.00    -0.385 NA
ATOM     18 C18  LIG A   1      17.586  14.265   8.982  1.00 20.00    +0.016 C 
ATOM     19 C19  LIG A   1      17.114  13.054   8.171  1.00 20.00    -0.023 C 
ATOM     20 C20  LIG A   1      16.334  13.423   6.900  1.00 20.00    -0.003 C 
ATOM     21 N21  LIG A   1      17.097  14.164   5.892  1.00 20.00    -0.317 NA
ATOM     22 C22  LIG A   1      18.056  13.355   5.142  1.00 20.00    -0.005 C 
ATOM     23 C23  LIG A   1      17.434  12.416   4.102  1.00 20.00    -0.039 C 
ATOM     24 C24  LIG A   1      16.895  13.097   2.839  1.00 20.00    -0.040 C 
ATOM     25 C25  LIG A   1      15.748  14.076   3.079  1.00 20.00    -0.008 C 
ATOM     26 N26  LIG A   1      15.165  14.480   1.798  1.00 20.00    -0.330 NA
ATOM     27 C27  LIG A   1      18.693  16.823   9.906  1.00 20.00    -0.038 A 
ATOM     28 C28  LIG A   1      19.304  17.987  10.394  1.00 20.00    -0.052 A 
ATOM     29 C29  LIG A   1      20.370  20.970  10.463  1.00 20.00    +0.264 C 
ATOM     30 O30  LIG A   1      19.325  21.000  11.115  1.00 20.00    -0.268 OA
ATOM     31 N31  LIG A   1      20.902  22.090   9.834  1.00 20.00    -0.277 NA
ATOM     32 C32  LIG A   1      20.667  23.384  10.486  1.00 20.00    +0.029 C 
ATOM     33 C33  LIG A   1      20.616  23.465  12.029  1.00 20.00    -0.034 C 
ATOM     34 C34  LIG A   1      21.652  22.727  12.900  1.00 20.00    -0.034 C 
ATOM     35 C35  LIG A   1      23.146  23.115  12.755  1.00 20.00    +0.085 C 
ATOM     36 C36  LIG A   1      23.997  22.462  13.844  1.00 20.00    +0.311 C 
ATOM     37 O37  LIG A   1      25.031  21.828  13.710  1.00 20.00    -0.252 OA
ATOM     38 O38  LIG A   1      23.533  22.710  15.090  1.00 20.00    -0.481 OA
ATOM     39 C39  LIG A   1      21.216  21.993   8.467  1.00 20.00    +0.246 C 
ATOM     40 O40  LIG A   1      21.184  20.926   7.840  1.00 20.00    -0.273 OA
ATOM     41 C41  LIG A   1      21.576  23.288   7.673  1.00 20.00    +0.088 C 
ATOM     42 N42  LIG A   1      20.335  23.734   6.988  1.00 20.00    -0.320 NA
ATOM     43 N43  LIG A   1      19.043  18.007   7.130  1.00 20.00    -0.330 NA
ATOM     44 C44  LIG A   1      19.263  18.303   8.545  1.00 20.00    -0.007 C 
ATOM     45 C45  LIG A   1      20.751  18.463   8.863  1.00 20.00    -0.029 C 
ATOM     46 C46  LIG A   1      21.367  19.754   8.321  1.00 20.00    -0.007 C 
ATOM     47 N47  LIG A   1      20.910  20.925   9.067  1.00 20.00    -0.330 NA
ATOM     48 H48  LIG A   1      22.110  24.757   5.344  1.00 20.00    +0.023 H 
ATOM     49 H49  LIG A   1      23.363  25.164   6.529  1.00 20.00    +0.023 H 
ATOM     50 H50  LIG A   1      23.764  24.222   5.082  1.00 20.00    +0.023 H 
ATOM     51 H51  LIG A   1      22.357  22.356   5.861  1.00 20.00    +0.032 H 
ATOM     52 H52  LIG A   1      24.139  21.445   6.839  1.00 20.00    +0.032 H 
ATOM     53 H53  LIG A   1      24.932  22.981   6.653  1.00 20.00    +0.032 H 
ATOM     54 H54  LIG A   1      24.719  24.700   8.683  1.00 20.00    +0.063 H 
ATOM     55 H55  LIG A   1      24.303  24.928  11.086  1.00 20.00    +0.063 H 
ATOM     56 H56  LIG A   1      23.912  20.483   8.921  1.00 20.00    +0.067 H 
ATOM     57 H57  LIG A   1      22.948  18.639  10.846  1.00 20.00    +0.105 H 
ATOM     58 H58  LIG A   1      21.940  18.120   8.262  1.00 20.00    +0.063 H 
ATOM     59 H59  LIG A   1      20.876  16.082   7.428  1.00 20.00    +0.064 H 
ATOM     60 H60  LIG A   1      19.384  14.317   7.933  1.00 20.00    +0.160 HD
ATOM     61 H61  LIG A   1      17.936  13.917   9.963  1.00 20.00    +0.049 H 
ATOM     62 H62  LIG A   1      16.736  14.939   9.137  1.00 20.00    +0.049 H 
ATOM     63 H63  LIG A   1      16.443  12.464   8.809  1.00 20.00    +0.030 H 
ATOM     64 H64  LIG A   1      17.962  12.403   7.929  1.00 20.00    +0.030 H 
ATOM     65 H65  LIG A   1      15.484  14.055   7.190  1.00 20.00    +0.043 H 
ATOM     66 H66  LIG A   1      15.890  12.520   6.469  1.00 20.00    +0.043 H 
ATOM     67 H67  LIG A   1      17.615  14.903   6.387  1.00 20.00    +0.122 HD
ATOM     68 H68  LIG A   1      18.740  14.039   4.622  1.00 20.00    +0.043 H 
ATOM     69 H69  LIG A   1      18.683  12.772   5.827  1.00 20.00    +0.043 H 
ATOM     70 H70  LIG A   1      16.649  11.797   4.549  1.00 20.00    +0.028 H 
ATOM     71 H71  LIG A   1      18.216  11.715   3.781  1.00 20.00    +0.028 H 
ATOM     72 H72  LIG A   1      16.560  12.303   2.157  1.00 20.00    +0.028 H 
ATOM     73 H73  LIG A   1      17.717  13.615   2.327  1.00 20.00    +0.028 H 
ATOM     74 H74  LIG A   1      14.970  13.620   3.701  1.00 20.00    +0.043 H 
ATOM     75 H75  LIG A   1      16.110  14.976   3.583  1.00 20.00    +0.043 H 
ATOM     76 H76  LIG A   1      14.408  15.138   1.974  1.00 20.00    +0.118 HD
ATOM     77 H77  LIG A   1      14.741  13.668   1.351  1.00 20.00    +0.118 HD
ATOM     78 H78  LIG A   1      17.761  16.514  10.369  1.00 20.00    +0.064 H 
ATOM     79 H79  LIG A   1      18.831  18.518  11.219  1.00 20.00    +0.063 H 
ATOM     80 H80  LIG A   1      21.437  24.089  10.176  1.00 20.00    +0.050 H 
ATOM     81 H81  LIG A   1      19.722  23.774  10.085  1.00 20.00    +0.050 H 
ATOM     82 H82  LIG A   1      19.624  23.126  12.354  1.00 20.00    +0.029 H 
ATOM     83 H83  LIG A   1      20.646  24.529  12.299  1.00 20.00    +0.029 H 
ATOM     84 H84  LIG A   1      21.355  22.933  13.939  1.00 20.00    +0.028 H 
ATOM     85 H85  LIG A   1      21.513  21.647  12.808  1.00 20.00    +0.028 H 
ATOM     86 H86  LIG A   1      23.220  24.193  12.951  1.00 20.00    +0.047 H 
ATOM     87 H87  LIG A   1      24.178  22.251  15.669  1.00 20.00    +0.296 HD
ATOM     88 H88  LIG A   1      21.884  24.103   8.324  1.00 20.00    +0.057 H 
ATOM     89 H89  LIG A   1      20.073  23.011   6.311  1.00 20.00    +0.119 HD
ATOM     90 H90  LIG A   1      19.562  23.766   7.653  1.00 20.00    +0.119 HD
ATOM     91 H91  LIG A   1      19.446  17.100   6.903  1.00 20.00    +0.118 HD
ATOM     92 H92  LIG A   1      18.041  17.926   6.960  1.00 20.00    +0.118 HD
ATOM     93 H93  LIG A   1      18.707  19.205   8.821  1.00 20.00    +0.043 H 
ATOM     94 H94  LIG A   1      18.856  17.477   9.138  1.00 20.00    +0.043 H 
ATOM     95 H95  LIG A   1      20.888  18.422   9.951  1.00 20.00    +0.029 H 
ATOM     96 H96  LIG A   1      21.306  17.606   8.457  1.00 20.00    +0.029 H 
ATOM     97 H97  LIG A   1      22.458  19.694   8.407  1.00 20.00    +0.043 H 
ATOM     98 H98  LIG A   1      21.131  19.882   7.259  1.00 20.00    +0.043 H 
ATOM     99 H99  LIG A   1      21.333  21.761   8.665  1.00 20.00    +0.118 HD
ATOM    100 H100 LIG A   1      21.243  20.870  10.028  1.00 20.00    +0.118 HD
ENDROOT
TORSDOF 0
                                                                                                       
ENDMDL
MODEL 9
REMARK VINA RESULT:    -9.618      3.825      6.532
REMARK INTER + INTRA:          -9.618
REMARK INTER:                  -9.618
REMARK INTRA:                   0.000
REMARK UNBOUND:                 0.000
ROOT
ATOM      1 C1   LIG A   1      21.513  21.141   5.602  1.00 20.00    -0.060 C 
ATOM      2 C2   LIG A   1      21.060  21.392   7.054  1.00 20.00    -0.016 C 
ATOM      3 C3   LIG A   1      19.951  20.345   7.415  1.00 20.00    -0.023 C 
ATOM      4 C4   LIG A   1      20.380  19.288   8.399  1.00 20.00    -0.044 A 
ATOM      5 C5   LIG A   1      21.288  18.291   8.036  1.00 20.00    -0.058 A 
ATOM      6 C6   LIG A   1      21.987  17.602   9.025  1.00 20.00    -0.054 A 
ATOM      7 C7   LIG A   1      21.813  17.930  10.382  1.00 20.00    +0.009 A 
ATOM      8 C8   LIG A   1      20.784  18.822  10.736  1.00 20.00    +0.130 A 
ATOM      9 C9   LIG A   1      20.024  19.441   9.744  1.00 20.00    -0.016 A 
ATOM     10 O10  LIG A   1      20.633  19.152  12.066  1.00 20.00    -0.464 OA
ATOM     11 C11  LIG A   1      20.269  20.442  12.396  1.00 20.00    +0.104 C 
ATOM     12 C12  LIG A   1      21.008  21.570  12.327  1.00 20.00    +0.082 C 
ATOM     13 C13  LIG A   1      20.439  22.811  12.897  1.00 20.00    -0.010 A 
ATOM     14 C14  LIG A   1      19.242  23.340  12.399  1.00 20.00    -0.052 A 
ATOM     15 C15  LIG A   1      18.694  24.505  12.948  1.00 20.00    -0.038 A 
ATOM     16 C16  LIG A   1      19.308  25.170  14.018  1.00 20.00    +0.034 A 
ATOM     17 N17  LIG A   1      18.739  26.366  14.466  1.00 20.00    -0.385 NA
ATOM     18 C18  LIG A   1      19.211  26.982  15.704  1.00 20.00    +0.016 C 
ATOM     19 C19  LIG A   1      18.431  28.268  15.998  1.00 20.00    -0.023 C 
ATOM     20 C20  LIG A   1      18.778  29.433  15.058  1.00 20.00    -0.003 C 
ATOM     21 N21  LIG A   1      18.451  29.216  13.646  1.00 20.00    -0.317 NA
ATOM     22 C22  LIG A   1      17.026  29.306  13.333  1.00 20.00    -0.005 C 
ATOM     23 C23  LIG A   1      16.456  30.728  13.331  1.00 20.00    -0.039 C 
ATOM     24 C24  LIG A   1      16.859  31.600  12.136  1.00 20.00    -0.040 C 
ATOM     25 C25  LIG A   1      18.356  31.880  12.024  1.00 20.00    -0.008 C 
ATOM     26 N26  LIG A   1      18.594  32.899  11.000  1.00 20.00    -0.330 NA
ATOM     27 C27  LIG A   1      20.527  24.662  14.477  1.00 20.00    -0.038 A 
ATOM     28 C28  LIG A   1      21.077  23.491  13.938  1.00 20.00    -0.052 A 
ATOM     29 C29  LIG A   1      22.430  21.546  11.832  1.00 20.00    +0.264 C 
ATOM     30 O30  LIG A   1      23.349  21.876  12.583  1.00 20.00    -0.268 OA
ATOM     31 N31  LIG A   1      22.636  21.116  10.527  1.00 20.00    -0.277 NA
ATOM     32 C32  LIG A   1      23.884  20.389  10.263  1.00 20.00    +0.029 C 
ATOM     33 C33  LIG A   1      24.478  19.469  11.355  1.00 20.00    -0.034 C 
ATOM     34 C34  LIG A   1      23.581  18.507  12.160  1.00 20.00    -0.034 C 
ATOM     35 C35  LIG A   1      22.817  17.396  11.394  1.00 20.00    +0.085 C 
ATOM     36 C36  LIG A   1      22.171  16.401  12.357  1.00 20.00    +0.311 C 
ATOM     37 O37  LIG A   1      21.018  16.003  12.363  1.00 20.00    -0.252 OA
ATOM     38 O38  LIG A   1      23.052  15.883  13.243  1.00 20.00    -0.481 OA
ATOM     39 C39  LIG A   1      21.917  21.753   9.500  1.00 20.00    +0.246 C 
ATOM     40 O40  LIG A   1      21.007  22.564   9.715  1.00 20.00    -0.273 OA
ATOM     41 C41  LIG A   1      22.302  21.474   8.012  1.00 20.00    +0.088 C 
ATOM     42 N42  LIG A   1      23.195  22.582   7.583  1.00 20.00    -0.320 NA
ATOM     43 N43  LIG A   1      20.194  25.621  11.612  1.00 20.00    -0.330 NA
ATOM     44 C44  LIG A   1      20.714  24.505  12.401  1.00 20.00    -0.007 C 
ATOM     45 C45  LIG A   1      19.950  23.209  12.116  1.00 20.00    -0.029 C 
ATOM     46 C46  LIG A   1      20.248  22.602  10.744  1.00 20.00    -0.007 C 
ATOM     47 N47  LIG A   1      21.588  22.022  10.689  1.00 20.00    -0.330 NA
ATOM     48 H48  LIG A   1      22.188  21.927   5.247  1.00 20.00    +0.023 H 
ATOM     49 H49  LIG A   1      22.031  20.181   5.508  1.00 20.00    +0.023 H 
ATOM     50 H50  LIG A   1      20.654  21.132   4.924  1.00 20.00    +0.023 H 
ATOM     51 H51  LIG A   1      20.563  22.373   7.049  1.00 20.00    +0.032 H 
ATOM     52 H52  LIG A   1      19.094  20.892   7.831  1.00 20.00    +0.032 H 
ATOM     53 H53  LIG A   1      19.558  19.853   6.517  1.00 20.00    +0.032 H 
ATOM     54 H54  LIG A   1      21.531  18.120   6.990  1.00 20.00    +0.063 H 
ATOM     55 H55  LIG A   1      22.745  16.883   8.721  1.00 20.00    +0.063 H 
ATOM     56 H56  LIG A   1      19.270  20.177  10.014  1.00 20.00    +0.067 H 
ATOM     57 H57  LIG A   1      19.278  20.413  12.839  1.00 20.00    +0.105 H 
ATOM     58 H58  LIG A   1      18.741  22.869  11.557  1.00 20.00    +0.063 H 
ATOM     59 H59  LIG A   1      17.779  24.904  12.514  1.00 20.00    +0.064 H 
ATOM     60 H60  LIG A   1      17.723  26.331  14.400  1.00 20.00    +0.160 HD
ATOM     61 H61  LIG A   1      19.066  26.284  16.539  1.00 20.00    +0.049 H 
ATOM     62 H62  LIG A   1      20.278  27.224  15.636  1.00 20.00    +0.049 H 
ATOM     63 H63  LIG A   1      18.679  28.584  17.019  1.00 20.00    +0.030 H 
ATOM     64 H64  LIG A   1      17.353  28.072  15.988  1.00 20.00    +0.030 H 
ATOM     65 H65  LIG A   1      19.860  29.610  15.115  1.00 20.00    +0.043 H 
ATOM     66 H66  LIG A   1      18.314  30.352  15.430  1.00 20.00    +0.043 H 
ATOM     67 H67  LIG A   1      18.776  28.269  13.403  1.00 20.00    +0.122 HD
ATOM     68 H68  LIG A   1      16.873  28.873  12.335  1.00 20.00    +0.043 H 
ATOM     69 H69  LIG A   1      16.443  28.682  14.019  1.00 20.00    +0.043 H 
ATOM     70 H70  LIG A   1      16.696  31.250  14.264  1.00 20.00    +0.028 H 
ATOM     71 H71  LIG A   1      15.361  30.645  13.313  1.00 20.00    +0.028 H 
ATOM     72 H72  LIG A   1      16.316  32.550  12.226  1.00 20.00    +0.028 H 
ATOM     73 H73  LIG A   1      16.505  31.130  11.209  1.00 20.00    +0.028 H 
ATOM     74 H74  LIG A   1      18.760  32.229  12.980  1.00 20.00    +0.043 H 
ATOM     75 H75  LIG A   1      18.896  30.975  11.730  1.00 20.00    +0.043 H 
ATOM     76 H76  LIG A   1      19.596  33.069  10.931  1.00 20.00    +0.118 HD
ATOM     77 H77  LIG A   1      18.173  33.778  11.298  1.00 20.00    +0.118 HD
ATOM     78 H78  LIG A   1      21.080  25.157  15.269  1.00 20.00    +0.064 H 
ATOM     79 H79  LIG A   1      22.018  23.122  14.342  1.00 20.00    +0.063 H 
ATOM     80 H80  LIG A   1      23.757  19.762   9.382  1.00 20.00    +0.050 H 
ATOM     81 H81  LIG A   1      24.638  21.140   9.993  1.00 20.00    +0.050 H 
ATOM     82 H82  LIG A   1      25.004  20.100  12.082  1.00 20.00    +0.029 H 
ATOM     83 H83  LIG A   1      25.270  18.874  10.881  1.00 20.00    +0.029 H 
ATOM     84 H84  LIG A   1      24.255  18.013  12.874  1.00 20.00    +0.028 H 
ATOM     85 H85  LIG A   1      22.908  19.078  12.803  1.00 20.00    +0.028 H 
ATOM     86 H86  LIG A   1      23.567  16.810  10.845  1.00 20.00    +0.047 H 
ATOM     87 H87  LIG A   1      22.506  15.263  13.771  1.00 20.00    +0.296 HD
ATOM     88 H88  LIG A   1      22.867  20.552   7.895  1.00 20.00    +0.057 H 
ATOM     89 H89  LIG A   1      22.653  23.450   7.611  1.00 20.00    +0.119 HD
ATOM     90 H90  LIG A   1      23.941  22.712   8.266  1.00 20.00    +0.119 HD
ATOM     91 H91  LIG A   1      19.239  25.826  11.899  1.00 20.00    +0.118 HD
ATOM     92 H92  LIG A   1      20.740  26.456  11.821  1.00 20.00    +0.118 HD
ATOM     93 H93  LIG A   1      21.783  24.379  12.197  1.00 20.00    +0.043 H 
ATOM     94 H94  LIG A   1      20.613  24.754  13.462  1.00 20.00    +0.043 H 
ATOM     95 H95  LIG A   1      20.190  22.477  12.898  1.00 20.00    +0.029 H 
ATOM     96 H96  LIG A   1      18.872  23.396  12.197  1.00 20.00    +0.029 H 
ATOM     97 H97  LIG A   1      19.519  21.809  10.537  1.00 20.00    +0.043 H 
ATOM     98 H98  LIG A   1      20.142  23.354   9.955  1.00 20.00    +0.043 H 
ATOM     99 H99  LIG A   1      21.747  21.642   9.756  1.00 20.00    +0.118 HD
ATOM    100 H100 LIG A   1      21.647  21.234  11.332  1.00 20.00    +0.118 HD
ENDROOT
TORSDOF 0
                                                                                                       
ENDMDL
