MODEL 1
REMARK VINA RESULT:   -11.182      0.000      0.000
REMARK INTER + INTRA:         -11.182
REMARK INTER:                 -11.182
REMARK INTRA:                   0.000
REMARK UNBOUND:                 0.000
ROOT
ATOM      1 N1   LIG A   1      16.679  10.465   3.044  1.00 20.00    -0.330 NA
ATOM      2 C2   LIG A   1      16.008  11.497   3.827  1.00 20.00    -0.008 C 
ATOM      3 C3   LIG A   1      16.765  12.823   3.752  1.00 20.00    -0.040 C 
ATOM      4 C4   LIG A   1      16.059  13.908   4.571  1.00 20.00    -0.039 C 
ATOM      5 C5   LIG A   1      16.746  15.273   4.473  1.00 20.00    -0.005 C 
ATOM      6 N6   LIG A   1      18.095  15.226   5.039  1.00 20.00    -0.317 NA
ATOM      7 C7   LIG A   1      18.757  16.529   4.927  1.00 20.00    -0.003 C 
ATOM      8 C8   LIG A   1      20.167  16.443   5.519  1.00 20.00    -0.023 C 
ATOM      9 C9   LIG A   1      20.954  17.740   5.321  1.00 20.00    +0.016 C 
ATOM     10 N10  LIG A   1      20.349  18.852   6.046  1.00 20.00    -0.385 NA
ATOM     11 C11  LIG A   1      20.748  19.189   7.339  1.00 20.00    +0.034 A 
ATOM     12 C12  LIG A   1      21.428  18.326   8.202  1.00 20.00    -0.038 A 
ATOM     13 C13  LIG A   1      21.750  18.708   9.514  1.00 20.00    -0.049 A 
ATOM     14 C14  LIG A   1      21.376  19.959  10.016  1.00 20.00    +0.017 A 
ATOM     15 C15  LIG A   1      21.729  20.359  11.377  1.00 20.00    +0.134 A 
ATOM     16 C16  LIG A   1      22.417  19.761  12.414  1.00 20.00    -0.015 A 
ATOM     17 C17  LIG A   1      22.436  20.691  13.482  1.00 20.00    -0.015 A 
ATOM     18 C18  LIG A   1      21.755  21.811  13.048  1.00 20.00    +0.134 A 
ATOM     19 C19  LIG A   1      21.428  23.104  13.640  1.00 20.00    +0.017 A 
ATOM     20 C20  LIG A   1      22.027  23.517  14.835  1.00 20.00    -0.049 A 
ATOM     21 C21  LIG A   1      21.717  24.762  15.408  1.00 20.00    -0.038 A 
ATOM     22 C22  LIG A   1      20.780  25.618  14.826  1.00 20.00    +0.034 A 
ATOM     23 N23  LIG A   1      20.480  26.890  15.305  1.00 20.00    -0.385 NA
ATOM     24 C24  LIG A   1      20.821  27.324  16.657  1.00 20.00    +0.016 C 
ATOM     25 C25  LIG A   1      22.179  28.028  16.682  1.00 20.00    -0.023 C 
ATOM     26 C26  LIG A   1      22.173  29.379  15.961  1.00 20.00    -0.003 C 
ATOM     27 N27  LIG A   1      21.386  30.369  16.709  1.00 20.00    -0.317 NA
ATOM     28 C28  LIG A   1      21.263  31.638  15.988  1.00 20.00    -0.005 C 
ATOM     29 C29  LIG A   1      20.267  31.602  14.821  1.00 20.00    -0.039 C 
ATOM     30 C30  LIG A   1      18.850  31.208  15.256  1.00 20.00    -0.040 C 
ATOM     31 C31  LIG A   1      17.860  31.122  14.093  1.00 20.00    -0.008 C 
ATOM     32 N32  LIG A   1      17.621  32.406  13.443  1.00 20.00    -0.330 NA
ATOM     33 C33  LIG A   1      20.210  25.213  13.612  1.00 20.00    -0.038 A 
ATOM     34 C34  LIG A   1      20.518  23.976  13.033  1.00 20.00    -0.049 A 
ATOM     35 O35  LIG A   1      21.323  21.604  11.768  1.00 20.00    -0.456 OA
ATOM     36 C36  LIG A   1      20.653  20.807   9.172  1.00 20.00    -0.049 A 
ATOM     37 C37  LIG A   1      20.335  20.421   7.862  1.00 20.00    -0.038 A 
ATOM     38 O38  LIG A   1      20.624  23.881  12.204  1.00 20.00    -0.504 OA
ATOM     39 C39  LIG A   1      20.267  23.056  11.173  1.00 20.00    +0.161 A 
ATOM     40 C40  LIG A   1      20.273  23.483   9.850  1.00 20.00    -0.016 A 
ATOM     41 C41  LIG A   1      19.897  22.589   8.839  1.00 20.00    -0.055 A 
ATOM     42 C42  LIG A   1      19.519  21.280   9.154  1.00 20.00    -0.016 A 
ATOM     43 C43  LIG A   1      19.519  20.872  10.482  1.00 20.00    +0.161 A 
ATOM     44 O44  LIG A   1      19.152  19.595  10.792  1.00 20.00    -0.504 OA
ATOM     45 C45  LIG A   1      19.891  21.754  11.487  1.00 20.00    +0.200 A 
ATOM     46 O46  LIG A   1      19.883  21.325  12.787  1.00 20.00    -0.502 OA
ATOM     47 H47  LIG A   1      16.765  10.777   2.077  1.00 20.00    +0.118 HD
ATOM     48 H48  LIG A   1      17.635  10.355   3.383  1.00 20.00    +0.118 HD
ATOM     49 H49  LIG A   1      15.933  11.162   4.868  1.00 20.00    +0.043 H 
ATOM     50 H50  LIG A   1      14.987  11.619   3.450  1.00 20.00    +0.043 H 
ATOM     51 H51  LIG A   1      16.840  13.147   2.706  1.00 20.00    +0.028 H 
ATOM     52 H52  LIG A   1      17.787  12.681   4.121  1.00 20.00    +0.028 H 
ATOM     53 H53  LIG A   1      15.027  14.016   4.215  1.00 20.00    +0.028 H 
ATOM     54 H54  LIG A   1      15.998  13.598   5.622  1.00 20.00    +0.028 H 
ATOM     55 H55  LIG A   1      16.140  16.011   5.011  1.00 20.00    +0.043 H 
ATOM     56 H56  LIG A   1      16.787  15.579   3.420  1.00 20.00    +0.043 H 
ATOM     57 H57  LIG A   1      18.037  14.966   6.024  1.00 20.00    +0.122 HD
ATOM     58 H58  LIG A   1      18.175  17.293   5.455  1.00 20.00    +0.043 H 
ATOM     59 H59  LIG A   1      18.824  16.821   3.872  1.00 20.00    +0.043 H 
ATOM     60 H60  LIG A   1      20.104  16.186   6.583  1.00 20.00    +0.030 H 
ATOM     61 H61  LIG A   1      20.718  15.631   5.027  1.00 20.00    +0.030 H 
ATOM     62 H62  LIG A   1      22.006  17.602   5.600  1.00 20.00    +0.049 H 
ATOM     63 H63  LIG A   1      20.960  17.990   4.253  1.00 20.00    +0.049 H 
ATOM     64 H64  LIG A   1      20.230  19.681   5.466  1.00 20.00    +0.160 HD
ATOM     65 H65  LIG A   1      21.733  17.336   7.877  1.00 20.00    +0.064 H 
ATOM     66 H66  LIG A   1      22.298  18.003  10.135  1.00 20.00    +0.063 H 
ATOM     67 H67  LIG A   1      22.858  18.774  12.406  1.00 20.00    +0.066 H 
ATOM     68 H68  LIG A   1      22.892  20.557  14.453  1.00 20.00    +0.066 H 
ATOM     69 H69  LIG A   1      22.758  22.889  15.334  1.00 20.00    +0.063 H 
ATOM     70 H70  LIG A   1      22.233  25.037  16.322  1.00 20.00    +0.064 H 
ATOM     71 H71  LIG A   1      19.569  27.224  15.000  1.00 20.00    +0.160 HD
ATOM     72 H72  LIG A   1      20.040  28.007  17.009  1.00 20.00    +0.049 H 
ATOM     73 H73  LIG A   1      20.811  26.482  17.359  1.00 20.00    +0.049 H 
ATOM     74 H74  LIG A   1      22.489  28.172  17.725  1.00 20.00    +0.030 H 
ATOM     75 H75  LIG A   1      22.942  27.392  16.217  1.00 20.00    +0.030 H 
ATOM     76 H76  LIG A   1      23.208  29.734  15.873  1.00 20.00    +0.043 H 
ATOM     77 H77  LIG A   1      21.788  29.246  14.944  1.00 20.00    +0.043 H 
ATOM     78 H78  LIG A   1      21.856  30.544  17.598  1.00 20.00    +0.122 HD
ATOM     79 H79  LIG A   1      20.922  32.396  16.704  1.00 20.00    +0.043 H 
ATOM     80 H80  LIG A   1      22.244  31.974  15.631  1.00 20.00    +0.043 H 
ATOM     81 H81  LIG A   1      20.618  30.918  14.040  1.00 20.00    +0.028 H 
ATOM     82 H82  LIG A   1      20.250  32.601  14.370  1.00 20.00    +0.028 H 
ATOM     83 H83  LIG A   1      18.484  31.924  16.004  1.00 20.00    +0.028 H 
ATOM     84 H84  LIG A   1      18.874  30.227  15.745  1.00 20.00    +0.028 H 
ATOM     85 H85  LIG A   1      18.214  30.401  13.347  1.00 20.00    +0.043 H 
ATOM     86 H86  LIG A   1      16.902  30.745  14.470  1.00 20.00    +0.043 H 
ATOM     87 H87  LIG A   1      17.373  33.102  14.145  1.00 20.00    +0.118 HD
ATOM     88 H88  LIG A   1      18.478  32.736  13.003  1.00 20.00    +0.118 HD
ATOM     89 H89  LIG A   1      19.514  25.867  13.094  1.00 20.00    +0.064 H 
ATOM     90 H90  LIG A   1      20.039  23.705  12.094  1.00 20.00    +0.063 H 
ATOM     91 H91  LIG A   1      20.322  21.782   9.521  1.00 20.00    +0.063 H 
ATOM     92 H92  LIG A   1      19.754  21.106   7.249  1.00 20.00    +0.064 H 
ATOM     93 H93  LIG A   1      20.873  24.742  11.827  1.00 20.00    +0.293 HD
ATOM     94 H94  LIG A   1      20.562  24.495   9.583  1.00 20.00    +0.066 H 
ATOM     95 H95  LIG A   1      19.897  22.912   7.800  1.00 20.00    +0.063 H 
ATOM     96 H96  LIG A   1      19.226  20.585   8.373  1.00 20.00    +0.066 H 
ATOM     97 H97  LIG A   1      19.234  19.549  11.766  1.00 20.00    +0.293 HD
ATOM     98 H98  LIG A   1      20.169  22.111  13.297  1.00 20.00    +0.293 HD
ENDROOT
TORSDOF 0
                                                                                                     
ENDMDL
MODEL 2
REMARK VINA RESULT:   -11.109      2.083     13.952
REMARK INTER + INTRA:         -11.109
REMARK INTER:                 -11.109
REMARK INTRA:                   0.000
REMARK UNBOUND:                 0.000
ROOT
ATOM      1 N1   LIG A   1      21.349  31.476  16.978  1.00 20.00    -0.330 NA
ATOM      2 C2   LIG A   1      20.268  30.720  16.354  1.00 20.00    -0.008 C 
ATOM      3 C3   LIG A   1      20.569  29.221  16.366  1.00 20.00    -0.040 C 
ATOM      4 C4   LIG A   1      19.433  28.426  15.713  1.00 20.00    -0.039 C 
ATOM      5 C5   LIG A   1      19.660  26.912  15.761  1.00 20.00    -0.005 C 
ATOM      6 N6   LIG A   1      20.845  26.532  14.990  1.00 20.00    -0.317 NA
ATOM      7 C7   LIG A   1      21.070  25.085  15.051  1.00 20.00    -0.003 C 
ATOM      8 C8   LIG A   1      22.319  24.723  14.244  1.00 20.00    -0.023 C 
ATOM      9 C9   LIG A   1      22.677  23.241  14.371  1.00 20.00    +0.016 C 
ATOM     10 N10  LIG A   1      21.642  22.387  13.797  1.00 20.00    -0.385 NA
ATOM     11 C11  LIG A   1      21.701  21.954  12.472  1.00 20.00    +0.034 A 
ATOM     12 C12  LIG A   1      22.470  22.563  11.478  1.00 20.00    -0.038 A 
ATOM     13 C13  LIG A   1      22.439  22.111  10.149  1.00 20.00    -0.049 A 
ATOM     14 C14  LIG A   1      21.613  21.050   9.766  1.00 20.00    +0.017 A 
ATOM     15 C15  LIG A   1      21.596  20.572   8.384  1.00 20.00    +0.134 A 
ATOM     16 C16  LIG A   1      22.261  20.930   7.228  1.00 20.00    -0.015 A 
ATOM     17 C17  LIG A   1      21.812  20.052   6.211  1.00 20.00    -0.015 A 
ATOM     18 C18  LIG A   1      20.892  19.204   6.792  1.00 20.00    +0.134 A 
ATOM     19 C19  LIG A   1      20.081  18.088   6.313  1.00 20.00    +0.017 A 
ATOM     20 C20  LIG A   1      20.318  17.518   5.059  1.00 20.00    -0.049 A 
ATOM     21 C21  LIG A   1      19.542  16.443   4.594  1.00 20.00    -0.038 A 
ATOM     22 C22  LIG A   1      18.489  15.924   5.351  1.00 20.00    +0.034 A 
ATOM     23 N23  LIG A   1      17.729  14.819   4.978  1.00 20.00    -0.385 NA
ATOM     24 C24  LIG A   1      17.693  14.312   3.609  1.00 20.00    +0.016 C 
ATOM     25 C25  LIG A   1      18.735  13.212   3.402  1.00 20.00    -0.023 C 
ATOM     26 C26  LIG A   1      18.419  11.927   4.172  1.00 20.00    -0.003 C 
ATOM     27 N27  LIG A   1      17.249  11.247   3.598  1.00 20.00    -0.317 NA
ATOM     28 C28  LIG A   1      16.850  10.076   4.382  1.00 20.00    -0.005 C 
ATOM     29 C29  LIG A   1      16.118  10.417   5.688  1.00 20.00    -0.039 C 
ATOM     30 C30  LIG A   1      14.848  11.246   5.463  1.00 20.00    -0.040 C 
ATOM     31 C31  LIG A   1      14.137  11.632   6.762  1.00 20.00    -0.008 C 
ATOM     32 N32  LIG A   1      13.613  10.485   7.494  1.00 20.00    -0.330 NA
ATOM     33 C33  LIG A   1      18.280  16.477   6.621  1.00 20.00    -0.038 A 
ATOM     34 C34  LIG A   1      19.053  17.546   7.092  1.00 20.00    -0.049 A 
ATOM     35 O35  LIG A   1      20.760  19.525   8.114  1.00 20.00    -0.456 OA
ATOM     36 C36  LIG A   1      20.804  20.469  10.747  1.00 20.00    -0.049 A 
ATOM     37 C37  LIG A   1      20.840  20.923  12.073  1.00 20.00    -0.038 A 
ATOM     38 O38  LIG A   1      19.316  17.594   7.889  1.00 20.00    -0.504 OA
ATOM     39 C39  LIG A   1      19.409  18.480   8.927  1.00 20.00    +0.161 A 
ATOM     40 C40  LIG A   1      19.493  18.060  10.250  1.00 20.00    -0.016 A 
ATOM     41 C41  LIG A   1      19.588  19.017  11.269  1.00 20.00    -0.055 A 
ATOM     42 C42  LIG A   1      19.598  20.382  10.962  1.00 20.00    -0.016 A 
ATOM     43 C43  LIG A   1      19.512  20.782   9.634  1.00 20.00    +0.161 A 
ATOM     44 O44  LIG A   1      19.523  22.112   9.331  1.00 20.00    -0.504 OA
ATOM     45 C45  LIG A   1      19.419  19.837   8.621  1.00 20.00    +0.200 A 
ATOM     46 O46  LIG A   1      19.337  20.258   7.322  1.00 20.00    -0.502 OA
ATOM     47 H47  LIG A   1      21.487  31.144  17.932  1.00 20.00    +0.118 HD
ATOM     48 H48  LIG A   1      22.223  31.279  16.490  1.00 20.00    +0.118 HD
ATOM     49 H49  LIG A   1      20.137  31.072  15.324  1.00 20.00    +0.043 H 
ATOM     50 H50  LIG A   1      19.337  30.926  16.890  1.00 20.00    +0.043 H 
ATOM     51 H51  LIG A   1      20.706  28.880  17.400  1.00 20.00    +0.028 H 
ATOM     52 H52  LIG A   1      21.510  29.034  15.836  1.00 20.00    +0.028 H 
ATOM     53 H53  LIG A   1      18.492  28.649  16.230  1.00 20.00    +0.028 H 
ATOM     54 H54  LIG A   1      19.305  28.750  14.672  1.00 20.00    +0.028 H 
ATOM     55 H55  LIG A   1      18.773  26.412  15.355  1.00 20.00    +0.043 H 
ATOM     56 H56  LIG A   1      19.772  26.599  16.806  1.00 20.00    +0.043 H 
ATOM     57 H57  LIG A   1      20.714  26.807  14.015  1.00 20.00    +0.122 HD
ATOM     58 H58  LIG A   1      20.199  24.552  14.653  1.00 20.00    +0.043 H 
ATOM     59 H59  LIG A   1      21.211  24.777  16.094  1.00 20.00    +0.043 H 
ATOM     60 H60  LIG A   1      22.170  24.997  13.193  1.00 20.00    +0.030 H 
ATOM     61 H61  LIG A   1      23.171  25.312  14.609  1.00 20.00    +0.030 H 
ATOM     62 H62  LIG A   1      23.659  23.039  13.926  1.00 20.00    +0.049 H 
ATOM     63 H63  LIG A   1      22.776  22.991  15.434  1.00 20.00    +0.049 H 
ATOM     64 H64  LIG A   1      21.363  21.634  14.423  1.00 20.00    +0.160 HD
ATOM     65 H65  LIG A   1      23.120  23.401  11.709  1.00 20.00    +0.064 H 
ATOM     66 H66  LIG A   1      23.073  22.611   9.422  1.00 20.00    +0.063 H 
ATOM     67 H67  LIG A   1      22.987  21.724   7.126  1.00 20.00    +0.066 H 
ATOM     68 H68  LIG A   1      22.124  20.043   5.176  1.00 20.00    +0.066 H 
ATOM     69 H69  LIG A   1      21.120  17.885   4.425  1.00 20.00    +0.063 H 
ATOM     70 H70  LIG A   1      19.790  16.026   3.623  1.00 20.00    +0.064 H 
ATOM     71 H71  LIG A   1      16.821  14.790   5.435  1.00 20.00    +0.160 HD
ATOM     72 H72  LIG A   1      16.689  13.918   3.412  1.00 20.00    +0.049 H 
ATOM     73 H73  LIG A   1      17.836  15.121   2.882  1.00 20.00    +0.049 H 
ATOM     74 H74  LIG A   1      18.811  12.988   2.331  1.00 20.00    +0.030 H 
ATOM     75 H75  LIG A   1      19.725  13.567   3.715  1.00 20.00    +0.030 H 
ATOM     76 H76  LIG A   1      19.288  11.260   4.112  1.00 20.00    +0.043 H 
ATOM     77 H77  LIG A   1      18.265  12.166   5.230  1.00 20.00    +0.043 H 
ATOM     78 H78  LIG A   1      17.489  10.940   2.655  1.00 20.00    +0.122 HD
ATOM     79 H79  LIG A   1      16.175   9.474   3.761  1.00 20.00    +0.043 H 
ATOM     80 H80  LIG A   1      17.718   9.441   4.596  1.00 20.00    +0.043 H 
ATOM     81 H81  LIG A   1      16.788  10.945   6.375  1.00 20.00    +0.028 H 
ATOM     82 H82  LIG A   1      15.859   9.470   6.178  1.00 20.00    +0.028 H 
ATOM     83 H83  LIG A   1      14.158  10.692   4.812  1.00 20.00    +0.028 H 
ATOM     84 H84  LIG A   1      15.101  12.173   4.935  1.00 20.00    +0.028 H 
ATOM     85 H85  LIG A   1      14.816  12.195   7.412  1.00 20.00    +0.043 H 
ATOM     86 H86  LIG A   1      13.300  12.299   6.523  1.00 20.00    +0.043 H 
ATOM     87 H87  LIG A   1      13.047   9.911   6.870  1.00 20.00    +0.118 HD
ATOM     88 H88  LIG A   1      14.380   9.895   7.809  1.00 20.00    +0.118 HD
ATOM     89 H89  LIG A   1      17.506  16.075   7.268  1.00 20.00    +0.064 H 
ATOM     90 H90  LIG A   1      18.842  17.946   8.081  1.00 20.00    +0.063 H 
ATOM     91 H91  LIG A   1      20.130  19.653  10.495  1.00 20.00    +0.063 H 
ATOM     92 H92  LIG A   1      20.180  20.453  12.797  1.00 20.00    +0.064 H 
ATOM     93 H93  LIG A   1      19.336  16.695   8.258  1.00 20.00    +0.293 HD
ATOM     94 H94  LIG A   1      19.487  17.006  10.511  1.00 20.00    +0.066 H 
ATOM     95 H95  LIG A   1      19.653  18.701  12.308  1.00 20.00    +0.063 H 
ATOM     96 H96  LIG A   1      19.670  21.126  11.749  1.00 20.00    +0.066 H 
ATOM     97 H97  LIG A   1      19.458  22.139   8.356  1.00 20.00    +0.293 HD
ATOM     98 H98  LIG A   1      19.274  19.427   6.807  1.00 20.00    +0.293 HD
ENDROOT
TORSDOF 0
                                                                                                     
ENDMDL
MODEL 3
REMARK VINA RESULT:   -10.879      2.818     13.788
REMARK INTER + INTRA:         -10.879
REMARK INTER:                 -10.879
REMARK INTRA:                   0.000
REMARK UNBOUND:                 0.000
ROOT
ATOM      1 N1   LIG A   1      22.913  32.265  17.224  1.00 20.00    -0.330 NA
ATOM      2 C2   LIG A   1      21.783  31.356  17.061  1.00 20.00    -0.008 C 
ATOM      3 C3   LIG A   1      22.256  29.906  16.953  1.00 20.00    -0.040 C 
ATOM      4 C4   LIG A   1      21.069  28.951  16.785  1.00 20.00    -0.039 C 
ATOM      5 C5   LIG A   1      21.490  27.479  16.737  1.00 20.00    -0.005 C 
ATOM      6 N6   LIG A   1      22.329  27.208  15.569  1.00 20.00    -0.317 NA
ATOM      7 C7   LIG A   1      22.745  25.802  15.536  1.00 20.00    -0.003 C 
ATOM      8 C8   LIG A   1      23.627  25.555  14.309  1.00 20.00    -0.023 C 
ATOM      9 C9   LIG A   1      24.193  24.134  14.285  1.00 20.00    +0.016 C 
ATOM     10 N10  LIG A   1      23.137  23.136  14.151  1.00 20.00    -0.385 NA
ATOM     11 C11  LIG A   1      22.741  22.651  12.904  1.00 20.00    +0.034 A 
ATOM     12 C12  LIG A   1      22.988  23.301  11.692  1.00 20.00    -0.038 A 
ATOM     13 C13  LIG A   1      22.510  22.787  10.476  1.00 20.00    -0.049 A 
ATOM     14 C14  LIG A   1      21.744  21.618  10.437  1.00 20.00    +0.017 A 
ATOM     15 C15  LIG A   1      21.264  21.077   9.167  1.00 20.00    +0.134 A 
ATOM     16 C16  LIG A   1      21.385  21.457   7.845  1.00 20.00    -0.015 A 
ATOM     17 C17  LIG A   1      20.699  20.485   7.075  1.00 20.00    -0.015 A 
ATOM     18 C18  LIG A   1      20.188  19.561   7.964  1.00 20.00    +0.134 A 
ATOM     19 C19  LIG A   1      19.406  18.335   7.830  1.00 20.00    +0.017 A 
ATOM     20 C20  LIG A   1      19.217  17.739   6.579  1.00 20.00    -0.049 A 
ATOM     21 C21  LIG A   1      18.468  16.558   6.446  1.00 20.00    -0.038 A 
ATOM     22 C22  LIG A   1      17.860  15.953   7.547  1.00 20.00    +0.034 A 
ATOM     23 N23  LIG A   1      17.164  14.749   7.492  1.00 20.00    -0.385 NA
ATOM     24 C24  LIG A   1      16.674  14.178   6.241  1.00 20.00    +0.016 C 
ATOM     25 C25  LIG A   1      17.690  13.202   5.647  1.00 20.00    -0.023 C 
ATOM     26 C26  LIG A   1      17.859  11.925   6.476  1.00 20.00    -0.003 C 
ATOM     27 N27  LIG A   1      16.658  11.084   6.394  1.00 20.00    -0.317 NA
ATOM     28 C28  LIG A   1      16.741   9.912   7.268  1.00 20.00    -0.005 C 
ATOM     29 C29  LIG A   1      16.526  10.224   8.755  1.00 20.00    -0.039 C 
ATOM     30 C30  LIG A   1      15.170  10.883   9.038  1.00 20.00    -0.040 C 
ATOM     31 C31  LIG A   1      14.965  11.242  10.511  1.00 20.00    -0.008 C 
ATOM     32 N32  LIG A   1      14.912  10.076  11.386  1.00 20.00    -0.330 NA
ATOM     33 C33  LIG A   1      18.082  16.537   8.802  1.00 20.00    -0.038 A 
ATOM     34 C34  LIG A   1      18.832  17.711   8.942  1.00 20.00    -0.049 A 
ATOM     35 O35  LIG A   1      20.530  19.926   9.236  1.00 20.00    -0.456 OA
ATOM     36 C36  LIG A   1      21.453  20.990  11.652  1.00 20.00    -0.049 A 
ATOM     37 C37  LIG A   1      21.933  21.508  12.864  1.00 20.00    -0.038 A 
ATOM     38 O38  LIG A   1      19.370  17.828   9.578  1.00 20.00    -0.504 OA
ATOM     39 C39  LIG A   1      19.738  18.766  10.503  1.00 20.00    +0.161 A 
ATOM     40 C40  LIG A   1      20.373  18.422  11.691  1.00 20.00    -0.016 A 
ATOM     41 C41  LIG A   1      20.725  19.430  12.597  1.00 20.00    -0.055 A 
ATOM     42 C42  LIG A   1      20.441  20.770  12.314  1.00 20.00    -0.016 A 
ATOM     43 C43  LIG A   1      19.806  21.094  11.122  1.00 20.00    +0.161 A 
ATOM     44 O44  LIG A   1      19.529  22.400  10.842  1.00 20.00    -0.504 OA
ATOM     45 C45  LIG A   1      19.455  20.099  10.220  1.00 20.00    +0.200 A 
ATOM     46 O46  LIG A   1      18.831  20.446   9.053  1.00 20.00    -0.502 OA
ATOM     47 H47  LIG A   1      23.446  31.996  18.051  1.00 20.00    +0.118 HD
ATOM     48 H48  LIG A   1      23.553  32.150  16.438  1.00 20.00    +0.118 HD
ATOM     49 H49  LIG A   1      21.225  31.641  16.162  1.00 20.00    +0.043 H 
ATOM     50 H50  LIG A   1      21.108  31.474  17.915  1.00 20.00    +0.043 H 
ATOM     51 H51  LIG A   1      22.819  29.632  17.854  1.00 20.00    +0.028 H 
ATOM     52 H52  LIG A   1      22.940  29.808  16.102  1.00 20.00    +0.028 H 
ATOM     53 H53  LIG A   1      20.377  29.084  17.624  1.00 20.00    +0.028 H 
ATOM     54 H54  LIG A   1      20.513  29.208  15.874  1.00 20.00    +0.028 H 
ATOM     55 H55  LIG A   1      20.588  26.857  16.703  1.00 20.00    +0.043 H 
ATOM     56 H56  LIG A   1      22.031  27.231  17.659  1.00 20.00    +0.043 H 
ATOM     57 H57  LIG A   1      21.802  27.418  14.720  1.00 20.00    +0.122 HD
ATOM     58 H58  LIG A   1      21.864  25.151  15.502  1.00 20.00    +0.043 H 
ATOM     59 H59  LIG A   1      23.310  25.563  16.444  1.00 20.00    +0.043 H 
ATOM     60 H60  LIG A   1      23.054  25.760  13.397  1.00 20.00    +0.030 H 
ATOM     61 H61  LIG A   1      24.470  26.258  14.321  1.00 20.00    +0.030 H 
ATOM     62 H62  LIG A   1      24.948  24.030  13.497  1.00 20.00    +0.049 H 
ATOM     63 H63  LIG A   1      24.721  23.948  15.228  1.00 20.00    +0.049 H 
ATOM     64 H64  LIG A   1      23.216  22.386  14.834  1.00 20.00    +0.160 HD
ATOM     65 H65  LIG A   1      23.563  24.221  11.658  1.00 20.00    +0.064 H 
ATOM     66 H66  LIG A   1      22.750  23.324   9.562  1.00 20.00    +0.063 H 
ATOM     67 H67  LIG A   1      21.909  22.326   7.473  1.00 20.00    +0.066 H 
ATOM     68 H68  LIG A   1      20.591  20.465   6.000  1.00 20.00    +0.066 H 
ATOM     69 H69  LIG A   1      19.663  18.169   5.687  1.00 20.00    +0.063 H 
ATOM     70 H70  LIG A   1      18.379  16.129   5.452  1.00 20.00    +0.064 H 
ATOM     71 H71  LIG A   1      16.510  14.633   8.264  1.00 20.00    +0.160 HD
ATOM     72 H72  LIG A   1      15.731  13.657   6.444  1.00 20.00    +0.049 H 
ATOM     73 H73  LIG A   1      16.424  14.962   5.517  1.00 20.00    +0.049 H 
ATOM     74 H74  LIG A   1      17.380  12.938   4.628  1.00 20.00    +0.030 H 
ATOM     75 H75  LIG A   1      18.670  13.687   5.556  1.00 20.00    +0.030 H 
ATOM     76 H76  LIG A   1      18.718  11.365   6.085  1.00 20.00    +0.043 H 
ATOM     77 H77  LIG A   1      18.091  12.194   7.512  1.00 20.00    +0.043 H 
ATOM     78 H78  LIG A   1      16.557  10.764   5.430  1.00 20.00    +0.122 HD
ATOM     79 H79  LIG A   1      15.964   9.204   6.952  1.00 20.00    +0.043 H 
ATOM     80 H80  LIG A   1      17.699   9.396   7.130  1.00 20.00    +0.043 H 
ATOM     81 H81  LIG A   1      17.333  10.860   9.133  1.00 20.00    +0.028 H 
ATOM     82 H82  LIG A   1      16.597   9.277   9.304  1.00 20.00    +0.028 H 
ATOM     83 H83  LIG A   1      14.362  10.221   8.700  1.00 20.00    +0.028 H 
ATOM     84 H84  LIG A   1      15.082  11.808   8.456  1.00 20.00    +0.028 H 
ATOM     85 H85  LIG A   1      15.763  11.913  10.852  1.00 20.00    +0.043 H 
ATOM     86 H86  LIG A   1      14.022  11.792  10.614  1.00 20.00    +0.043 H 
ATOM     87 H87  LIG A   1      14.230   9.410  11.025  1.00 20.00    +0.118 HD
ATOM     88 H88  LIG A   1      15.810   9.598  11.380  1.00 20.00    +0.118 HD
ATOM     89 H89  LIG A   1      17.672  16.075   9.696  1.00 20.00    +0.064 H 
ATOM     90 H90  LIG A   1      18.965  18.129   9.938  1.00 20.00    +0.063 H 
ATOM     91 H91  LIG A   1      20.844  20.089  11.677  1.00 20.00    +0.063 H 
ATOM     92 H92  LIG A   1      21.665  20.996  13.785  1.00 20.00    +0.064 H 
ATOM     93 H93  LIG A   1      19.645  16.956   9.908  1.00 20.00    +0.293 HD
ATOM     94 H94  LIG A   1      20.602  17.388  11.931  1.00 20.00    +0.066 H 
ATOM     95 H95  LIG A   1      21.222  19.173  13.531  1.00 20.00    +0.063 H 
ATOM     96 H96  LIG A   1      20.712  21.553  13.015  1.00 20.00    +0.066 H 
ATOM     97 H97  LIG A   1      19.094  22.374   9.966  1.00 20.00    +0.293 HD
ATOM     98 H98  LIG A   1      18.683  19.590   8.600  1.00 20.00    +0.293 HD
ENDROOT
TORSDOF 0
                                                                                                     
ENDMDL
MODEL 4
REMARK VINA RESULT:   -10.110      2.936      4.665
REMARK INTER + INTRA:         -10.110
REMARK INTER:                 -10.110
REMARK INTRA:                   0.000
REMARK UNBOUND:                 0.000
ROOT
ATOM      1 N1   LIG A   1      11.875   9.666   0.798  1.00 20.00    -0.330 NA
ATOM      2 C2   LIG A   1      11.713  10.940   1.491  1.00 20.00    -0.008 C 
ATOM      3 C3   LIG A   1      13.023  11.727   1.507  1.00 20.00    -0.040 C 
ATOM      4 C4   LIG A   1      12.854  13.066   2.233  1.00 20.00    -0.039 C 
ATOM      5 C5   LIG A   1      14.125  13.919   2.217  1.00 20.00    -0.005 C 
ATOM      6 N6   LIG A   1      15.211  13.260   2.943  1.00 20.00    -0.317 NA
ATOM      7 C7   LIG A   1      16.433  14.071   2.910  1.00 20.00    -0.003 C 
ATOM      8 C8   LIG A   1      17.550  13.350   3.670  1.00 20.00    -0.023 C 
ATOM      9 C9   LIG A   1      18.885  14.089   3.567  1.00 20.00    +0.016 C 
ATOM     10 N10  LIG A   1      18.826  15.398   4.211  1.00 20.00    -0.385 NA
ATOM     11 C11  LIG A   1      19.199  15.576   5.543  1.00 20.00    +0.034 A 
ATOM     12 C12  LIG A   1      19.278  14.547   6.484  1.00 20.00    -0.038 A 
ATOM     13 C13  LIG A   1      19.604  14.804   7.825  1.00 20.00    -0.049 A 
ATOM     14 C14  LIG A   1      19.837  16.107   8.275  1.00 20.00    +0.017 A 
ATOM     15 C15  LIG A   1      20.194  16.368   9.668  1.00 20.00    +0.134 A 
ATOM     16 C16  LIG A   1      20.389  15.576  10.783  1.00 20.00    -0.015 A 
ATOM     17 C17  LIG A   1      20.747  16.444  11.843  1.00 20.00    -0.015 A 
ATOM     18 C18  LIG A   1      20.748  17.725  11.328  1.00 20.00    +0.134 A 
ATOM     19 C19  LIG A   1      21.032  19.049  11.874  1.00 20.00    +0.017 A 
ATOM     20 C20  LIG A   1      21.626  19.192  13.132  1.00 20.00    -0.049 A 
ATOM     21 C21  LIG A   1      21.904  20.463  13.661  1.00 20.00    -0.038 A 
ATOM     22 C22  LIG A   1      21.571  21.629  12.968  1.00 20.00    +0.034 A 
ATOM     23 N23  LIG A   1      21.880  22.913  13.406  1.00 20.00    -0.385 NA
ATOM     24 C24  LIG A   1      22.244  23.209  14.789  1.00 20.00    +0.016 C 
ATOM     25 C25  LIG A   1      23.761  23.169  14.977  1.00 20.00    -0.023 C 
ATOM     26 C26  LIG A   1      24.491  24.309  14.259  1.00 20.00    -0.003 C 
ATOM     27 N27  LIG A   1      24.212  25.598  14.904  1.00 20.00    -0.317 NA
ATOM     28 C28  LIG A   1      24.800  26.722  14.172  1.00 20.00    -0.005 C 
ATOM     29 C29  LIG A   1      24.042  27.101  12.893  1.00 20.00    -0.039 C 
ATOM     30 C30  LIG A   1      22.576  27.469  13.153  1.00 20.00    -0.040 C 
ATOM     31 C31  LIG A   1      21.799  27.803  11.878  1.00 20.00    -0.008 C 
ATOM     32 N32  LIG A   1      22.286  28.999  11.202  1.00 20.00    -0.330 NA
ATOM     33 C33  LIG A   1      21.007  21.477  11.695  1.00 20.00    -0.038 A 
ATOM     34 C34  LIG A   1      20.732  20.213  11.159  1.00 20.00    -0.049 A 
ATOM     35 O35  LIG A   1      20.407  17.676  10.005  1.00 20.00    -0.456 OA
ATOM     36 C36  LIG A   1      19.712  17.147   7.348  1.00 20.00    -0.049 A 
ATOM     37 C37  LIG A   1      19.386  16.884   6.010  1.00 20.00    -0.038 A 
ATOM     38 O38  LIG A   1      20.865  20.028  10.349  1.00 20.00    -0.504 OA
ATOM     39 C39  LIG A   1      20.262  19.418   9.284  1.00 20.00    +0.161 A 
ATOM     40 C40  LIG A   1      20.615  19.708   7.971  1.00 20.00    -0.016 A 
ATOM     41 C41  LIG A   1      19.961  19.048   6.923  1.00 20.00    -0.055 A 
ATOM     42 C42  LIG A   1      18.962  18.107   7.192  1.00 20.00    -0.016 A 
ATOM     43 C43  LIG A   1      18.623  17.831   8.510  1.00 20.00    +0.161 A 
ATOM     44 O44  LIG A   1      17.649  16.912   8.775  1.00 20.00    -0.504 OA
ATOM     45 C45  LIG A   1      19.269  18.482   9.552  1.00 20.00    +0.200 A 
ATOM     46 O46  LIG A   1      18.916  18.191  10.842  1.00 20.00    -0.502 OA
ATOM     47 H47  LIG A   1      12.203   9.838  -0.152  1.00 20.00    +0.118 HD
ATOM     48 H48  LIG A   1      12.614   9.128   1.250  1.00 20.00    +0.118 HD
ATOM     49 H49  LIG A   1      11.375  10.746   2.516  1.00 20.00    +0.043 H 
ATOM     50 H50  LIG A   1      10.928  11.517   0.993  1.00 20.00    +0.043 H 
ATOM     51 H51  LIG A   1      13.357  11.910   0.477  1.00 20.00    +0.028 H 
ATOM     52 H52  LIG A   1      13.801  11.130   1.998  1.00 20.00    +0.028 H 
ATOM     53 H53  LIG A   1      12.050  13.637   1.753  1.00 20.00    +0.028 H 
ATOM     54 H54  LIG A   1      12.538  12.888   3.269  1.00 20.00    +0.028 H 
ATOM     55 H55  LIG A   1      13.902  14.889   2.676  1.00 20.00    +0.043 H 
ATOM     56 H56  LIG A   1      14.420  14.102   1.176  1.00 20.00    +0.043 H 
ATOM     57 H57  LIG A   1      14.931  13.121   3.914  1.00 20.00    +0.122 HD
ATOM     58 H58  LIG A   1      16.244  15.051   3.363  1.00 20.00    +0.043 H 
ATOM     59 H59  LIG A   1      16.744  14.229   1.872  1.00 20.00    +0.043 H 
ATOM     60 H60  LIG A   1      17.258  13.220   4.718  1.00 20.00    +0.030 H 
ATOM     61 H61  LIG A   1      17.683  12.344   3.249  1.00 20.00    +0.030 H 
ATOM     62 H62  LIG A   1      19.700  13.478   3.972  1.00 20.00    +0.049 H 
ATOM     63 H63  LIG A   1      19.125  14.240   2.508  1.00 20.00    +0.049 H 
ATOM     64 H64  LIG A   1      19.187  16.143   3.620  1.00 20.00    +0.160 HD
ATOM     65 H65  LIG A   1      19.093  13.515   6.200  1.00 20.00    +0.064 H 
ATOM     66 H66  LIG A   1      19.670  13.961   8.508  1.00 20.00    +0.063 H 
ATOM     67 H67  LIG A   1      20.292  14.501  10.829  1.00 20.00    +0.066 H 
ATOM     68 H68  LIG A   1      20.974  16.166  12.863  1.00 20.00    +0.066 H 
ATOM     69 H69  LIG A   1      21.901  18.320  13.718  1.00 20.00    +0.063 H 
ATOM     70 H70  LIG A   1      22.389  20.510  14.632  1.00 20.00    +0.064 H 
ATOM     71 H71  LIG A   1      21.285  23.628  12.992  1.00 20.00    +0.160 HD
ATOM     72 H72  LIG A   1      21.863  24.205  15.042  1.00 20.00    +0.049 H 
ATOM     73 H73  LIG A   1      21.751  22.521  15.485  1.00 20.00    +0.049 H 
ATOM     74 H74  LIG A   1      23.990  23.208  16.050  1.00 20.00    +0.030 H 
ATOM     75 H75  LIG A   1      24.162  22.216  14.610  1.00 20.00    +0.030 H 
ATOM     76 H76  LIG A   1      25.570  24.112  14.297  1.00 20.00    +0.043 H 
ATOM     77 H77  LIG A   1      24.199  24.316  13.203  1.00 20.00    +0.043 H 
ATOM     78 H78  LIG A   1      24.611  25.578  15.844  1.00 20.00    +0.122 HD
ATOM     79 H79  LIG A   1      24.798  27.593  14.840  1.00 20.00    +0.043 H 
ATOM     80 H80  LIG A   1      25.852  26.520  13.936  1.00 20.00    +0.043 H 
ATOM     81 H81  LIG A   1      24.095  26.288  12.161  1.00 20.00    +0.028 H 
ATOM     82 H82  LIG A   1      24.562  27.955  12.442  1.00 20.00    +0.028 H 
ATOM     83 H83  LIG A   1      22.529  28.317  13.850  1.00 20.00    +0.028 H 
ATOM     84 H84  LIG A   1      22.067  26.631  13.642  1.00 20.00    +0.028 H 
ATOM     85 H85  LIG A   1      21.833  26.956  11.181  1.00 20.00    +0.043 H 
ATOM     86 H86  LIG A   1      20.745  27.959  12.136  1.00 20.00    +0.043 H 
ATOM     87 H87  LIG A   1      22.336  29.770  11.867  1.00 20.00    +0.118 HD
ATOM     88 H88  LIG A   1      23.235  28.847  10.869  1.00 20.00    +0.118 HD
ATOM     89 H89  LIG A   1      20.777  22.354  11.095  1.00 20.00    +0.064 H 
ATOM     90 H90  LIG A   1      20.284  20.151  10.170  1.00 20.00    +0.063 H 
ATOM     91 H91  LIG A   1      19.863  18.179   7.653  1.00 20.00    +0.063 H 
ATOM     92 H92  LIG A   1      19.282  17.726   5.330  1.00 20.00    +0.064 H 
ATOM     93 H93  LIG A   1      21.540  20.638  10.005  1.00 20.00    +0.293 HD
ATOM     94 H94  LIG A   1      21.387  20.436   7.740  1.00 20.00    +0.066 H 
ATOM     95 H95  LIG A   1      20.228  19.267   5.891  1.00 20.00    +0.063 H 
ATOM     96 H96  LIG A   1      18.452  17.594   6.382  1.00 20.00    +0.066 H 
ATOM     97 H97  LIG A   1      17.596  16.891   9.752  1.00 20.00    +0.293 HD
ATOM     98 H98  LIG A   1      19.493  18.769  11.382  1.00 20.00    +0.293 HD
ENDROOT
TORSDOF 0
                                                                                                     
ENDMDL
MODEL 5
REMARK VINA RESULT:   -10.015      2.213     13.710
REMARK INTER + INTRA:         -10.015
REMARK INTER:                 -10.015
REMARK INTRA:                   0.000
REMARK UNBOUND:                 0.000
ROOT
ATOM      1 N1   LIG A   1      19.997  32.872  18.239  1.00 20.00    -0.330 NA
ATOM      2 C2   LIG A   1      19.047  31.940  17.641  1.00 20.00    -0.008 C 
ATOM      3 C3   LIG A   1      19.623  30.526  17.588  1.00 20.00    -0.040 C 
ATOM      4 C4   LIG A   1      18.624  29.546  16.963  1.00 20.00    -0.039 C 
ATOM      5 C5   LIG A   1      19.134  28.102  16.948  1.00 20.00    -0.005 C 
ATOM      6 N6   LIG A   1      20.326  27.972  16.110  1.00 20.00    -0.317 NA
ATOM      7 C7   LIG A   1      20.822  26.592  16.112  1.00 20.00    -0.003 C 
ATOM      8 C8   LIG A   1      22.073  26.493  15.235  1.00 20.00    -0.023 C 
ATOM      9 C9   LIG A   1      22.708  25.103  15.295  1.00 20.00    +0.016 C 
ATOM     10 N10  LIG A   1      21.824  24.082  14.742  1.00 20.00    -0.385 NA
ATOM     11 C11  LIG A   1      21.893  23.700  13.402  1.00 20.00    +0.034 A 
ATOM     12 C12  LIG A   1      22.481  24.468  12.394  1.00 20.00    -0.038 A 
ATOM     13 C13  LIG A   1      22.465  24.051  11.053  1.00 20.00    -0.049 A 
ATOM     14 C14  LIG A   1      21.834  22.863  10.673  1.00 20.00    +0.017 A 
ATOM     15 C15  LIG A   1      21.835  22.424   9.279  1.00 20.00    +0.134 A 
ATOM     16 C16  LIG A   1      22.359  22.929   8.105  1.00 20.00    -0.015 A 
ATOM     17 C17  LIG A   1      22.030  22.008   7.081  1.00 20.00    -0.015 A 
ATOM     18 C18  LIG A   1      21.317  20.987   7.676  1.00 20.00    +0.134 A 
ATOM     19 C19  LIG A   1      20.706  19.750   7.198  1.00 20.00    +0.017 A 
ATOM     20 C20  LIG A   1      20.979  19.265   5.915  1.00 20.00    -0.049 A 
ATOM     21 C21  LIG A   1      20.395  18.075   5.451  1.00 20.00    -0.038 A 
ATOM     22 C22  LIG A   1      19.500  17.348   6.239  1.00 20.00    +0.034 A 
ATOM     23 N23  LIG A   1      18.943  16.129   5.865  1.00 20.00    -0.385 NA
ATOM     24 C24  LIG A   1      18.930  15.658   4.483  1.00 20.00    +0.016 C 
ATOM     25 C25  LIG A   1      20.148  14.780   4.190  1.00 20.00    -0.023 C 
ATOM     26 C26  LIG A   1      20.119  13.439   4.930  1.00 20.00    -0.003 C 
ATOM     27 N27  LIG A   1      19.070  12.565   4.389  1.00 20.00    -0.317 NA
ATOM     28 C28  LIG A   1      18.939  11.321   5.151  1.00 20.00    -0.005 C 
ATOM     29 C29  LIG A   1      18.226  11.485   6.500  1.00 20.00    -0.039 C 
ATOM     30 C30  LIG A   1      16.813  12.064   6.363  1.00 20.00    -0.040 C 
ATOM     31 C31  LIG A   1      16.111  12.277   7.707  1.00 20.00    -0.008 C 
ATOM     32 N32  LIG A   1      15.851  11.034   8.424  1.00 20.00    -0.330 NA
ATOM     33 C33  LIG A   1      19.258  17.821   7.535  1.00 20.00    -0.038 A 
ATOM     34 C34  LIG A   1      19.840  19.005   8.005  1.00 20.00    -0.049 A 
ATOM     35 O35  LIG A   1      21.197  21.245   9.013  1.00 20.00    -0.456 OA
ATOM     36 C36  LIG A   1      21.201  22.115  11.671  1.00 20.00    -0.049 A 
ATOM     37 C37  LIG A   1      21.221  22.536  13.009  1.00 20.00    -0.038 A 
ATOM     38 O38  LIG A   1      20.131  19.082   8.791  1.00 20.00    -0.504 OA
ATOM     39 C39  LIG A   1      20.111  19.944   9.852  1.00 20.00    +0.161 A 
ATOM     40 C40  LIG A   1      20.341  19.515  11.155  1.00 20.00    -0.016 A 
ATOM     41 C41  LIG A   1      20.308  20.447  12.200  1.00 20.00    -0.055 A 
ATOM     42 C42  LIG A   1      20.046  21.797  11.939  1.00 20.00    -0.016 A 
ATOM     43 C43  LIG A   1      19.817  22.205  10.632  1.00 20.00    +0.161 A 
ATOM     44 O44  LIG A   1      19.562  23.520  10.374  1.00 20.00    -0.504 OA
ATOM     45 C45  LIG A   1      19.850  21.285   9.592  1.00 20.00    +0.200 A 
ATOM     46 O46  LIG A   1      19.622  21.715   8.313  1.00 20.00    -0.502 OA
ATOM     47 H47  LIG A   1      20.245  32.548  19.173  1.00 20.00    +0.118 HD
ATOM     48 H48  LIG A   1      20.866  32.855  17.704  1.00 20.00    +0.118 HD
ATOM     49 H49  LIG A   1      18.797  32.286  16.631  1.00 20.00    +0.043 H 
ATOM     50 H50  LIG A   1      18.122  31.953  18.227  1.00 20.00    +0.043 H 
ATOM     51 H51  LIG A   1      19.876  30.191  18.602  1.00 20.00    +0.028 H 
ATOM     52 H52  LIG A   1      20.554  30.533  17.009  1.00 20.00    +0.028 H 
ATOM     53 H53  LIG A   1      17.687  29.575  17.531  1.00 20.00    +0.028 H 
ATOM     54 H54  LIG A   1      18.383  29.865  15.941  1.00 20.00    +0.028 H 
ATOM     55 H55  LIG A   1      18.336  27.453  16.568  1.00 20.00    +0.043 H 
ATOM     56 H56  LIG A   1      19.357  27.790  17.976  1.00 20.00    +0.043 H 
ATOM     57 H57  LIG A   1      20.095  28.240  15.152  1.00 20.00    +0.122 HD
ATOM     58 H58  LIG A   1      20.047  25.914  15.737  1.00 20.00    +0.043 H 
ATOM     59 H59  LIG A   1      21.072  26.291  17.136  1.00 20.00    +0.043 H 
ATOM     60 H60  LIG A   1      21.820  26.759  14.202  1.00 20.00    +0.030 H 
ATOM     61 H61  LIG A   1      22.817  27.223  15.579  1.00 20.00    +0.030 H 
ATOM     62 H62  LIG A   1      23.686  25.101  14.797  1.00 20.00    +0.049 H 
ATOM     63 H63  LIG A   1      22.909  24.850  16.343  1.00 20.00    +0.049 H 
ATOM     64 H64  LIG A   1      21.724  23.275  15.354  1.00 20.00    +0.160 HD
ATOM     65 H65  LIG A   1      22.973  25.408  12.622  1.00 20.00    +0.064 H 
ATOM     66 H66  LIG A   1      22.955  24.680  10.314  1.00 20.00    +0.063 H 
ATOM     67 H67  LIG A   1      22.916  23.849   7.996  1.00 20.00    +0.066 H 
ATOM     68 H68  LIG A   1      22.283  22.084   6.033  1.00 20.00    +0.066 H 
ATOM     69 H69  LIG A   1      21.663  19.793   5.257  1.00 20.00    +0.063 H 
ATOM     70 H70  LIG A   1      20.666  17.736   4.456  1.00 20.00    +0.064 H 
ATOM     71 H71  LIG A   1      18.081  15.917   6.363  1.00 20.00    +0.160 HD
ATOM     72 H72  LIG A   1      18.010  15.085   4.320  1.00 20.00    +0.049 H 
ATOM     73 H73  LIG A   1      18.881  16.496   3.778  1.00 20.00    +0.049 H 
ATOM     74 H74  LIG A   1      20.208  14.600   3.109  1.00 20.00    +0.030 H 
ATOM     75 H75  LIG A   1      21.069  15.308   4.468  1.00 20.00    +0.030 H 
ATOM     76 H76  LIG A   1      21.094  12.950   4.807  1.00 20.00    +0.043 H 
ATOM     77 H77  LIG A   1      19.979  13.620   6.001  1.00 20.00    +0.043 H 
ATOM     78 H78  LIG A   1      19.313  12.332   3.426  1.00 20.00    +0.122 HD
ATOM     79 H79  LIG A   1      18.357  10.617   4.542  1.00 20.00    +0.043 H 
ATOM     80 H80  LIG A   1      19.921  10.857   5.302  1.00 20.00    +0.043 H 
ATOM     81 H81  LIG A   1      18.820  12.114   7.172  1.00 20.00    +0.028 H 
ATOM     82 H82  LIG A   1      18.175  10.495   6.969  1.00 20.00    +0.028 H 
ATOM     83 H83  LIG A   1      16.206  11.406   5.727  1.00 20.00    +0.028 H 
ATOM     84 H84  LIG A   1      16.859  13.035   5.856  1.00 20.00    +0.028 H 
ATOM     85 H85  LIG A   1      16.706  12.943   8.343  1.00 20.00    +0.043 H 
ATOM     86 H86  LIG A   1      15.152  12.779   7.530  1.00 20.00    +0.043 H 
ATOM     87 H87  LIG A   1      15.370  10.379   7.808  1.00 20.00    +0.118 HD
ATOM     88 H88  LIG A   1      16.730  10.592   8.682  1.00 20.00    +0.118 HD
ATOM     89 H89  LIG A   1      18.608  17.263   8.204  1.00 20.00    +0.064 H 
ATOM     90 H90  LIG A   1      19.611  19.333   9.017  1.00 20.00    +0.063 H 
ATOM     91 H91  LIG A   1      20.680  21.194  11.424  1.00 20.00    +0.063 H 
ATOM     92 H92  LIG A   1      20.700  21.932  13.747  1.00 20.00    +0.064 H 
ATOM     93 H93  LIG A   1      20.339  18.194   9.128  1.00 20.00    +0.293 HD
ATOM     94 H94  LIG A   1      20.547  18.473  11.380  1.00 20.00    +0.066 H 
ATOM     95 H95  LIG A   1      20.486  20.124  13.223  1.00 20.00    +0.063 H 
ATOM     96 H96  LIG A   1      20.018  22.521  12.747  1.00 20.00    +0.066 H 
ATOM     97 H97  LIG A   1      19.441  23.559   9.404  1.00 20.00    +0.293 HD
ATOM     98 H98  LIG A   1      19.689  20.900   7.774  1.00 20.00    +0.293 HD
ENDROOT
TORSDOF 0
                                                                                                     
ENDMDL
MODEL 6
REMARK VINA RESULT:    -9.918      5.607      7.367
REMARK INTER + INTRA:          -9.918
REMARK INTER:                  -9.918
REMARK INTRA:                   0.000
REMARK UNBOUND:                 0.000
ROOT
ATOM      1 N1   LIG A   1      13.940   9.275  11.988  1.00 20.00    -0.330 NA
ATOM      2 C2   LIG A   1      13.851  10.296  10.950  1.00 20.00    -0.008 C 
ATOM      3 C3   LIG A   1      15.232  10.856  10.609  1.00 20.00    -0.040 C 
ATOM      4 C4   LIG A   1      15.139  11.926   9.517  1.00 20.00    -0.039 C 
ATOM      5 C5   LIG A   1      16.507  12.471   9.096  1.00 20.00    -0.005 C 
ATOM      6 N6   LIG A   1      17.165  13.158  10.208  1.00 20.00    -0.317 NA
ATOM      7 C7   LIG A   1      18.483  13.663   9.808  1.00 20.00    -0.003 C 
ATOM      8 C8   LIG A   1      19.146  14.367  10.994  1.00 20.00    -0.023 C 
ATOM      9 C9   LIG A   1      20.576  14.809  10.674  1.00 20.00    +0.016 C 
ATOM     10 N10  LIG A   1      20.604  15.818   9.620  1.00 20.00    -0.385 NA
ATOM     11 C11  LIG A   1      20.594  17.182   9.911  1.00 20.00    +0.034 A 
ATOM     12 C12  LIG A   1      20.171  17.724  11.127  1.00 20.00    -0.038 A 
ATOM     13 C13  LIG A   1      20.131  19.112  11.335  1.00 20.00    -0.049 A 
ATOM     14 C14  LIG A   1      20.487  20.006  10.320  1.00 20.00    +0.017 A 
ATOM     15 C15  LIG A   1      20.461  21.450  10.546  1.00 20.00    +0.134 A 
ATOM     16 C16  LIG A   1      20.145  22.255  11.623  1.00 20.00    -0.015 A 
ATOM     17 C17  LIG A   1      20.345  23.594  11.204  1.00 20.00    -0.015 A 
ATOM     18 C18  LIG A   1      20.768  23.542   9.891  1.00 20.00    +0.134 A 
ATOM     19 C19  LIG A   1      21.148  24.542   8.897  1.00 20.00    +0.017 A 
ATOM     20 C20  LIG A   1      21.358  25.875   9.266  1.00 20.00    -0.049 A 
ATOM     21 C21  LIG A   1      21.726  26.840   8.314  1.00 20.00    -0.038 A 
ATOM     22 C22  LIG A   1      21.866  26.514   6.963  1.00 20.00    +0.034 A 
ATOM     23 N23  LIG A   1      22.293  27.406   5.984  1.00 20.00    -0.385 NA
ATOM     24 C24  LIG A   1      22.284  28.853   6.178  1.00 20.00    +0.016 C 
ATOM     25 C25  LIG A   1      23.633  29.346   6.705  1.00 20.00    -0.023 C 
ATOM     26 C26  LIG A   1      24.765  29.220   5.680  1.00 20.00    -0.003 C 
ATOM     27 N27  LIG A   1      24.584  30.177   4.580  1.00 20.00    -0.317 NA
ATOM     28 C28  LIG A   1      25.585  30.003   3.525  1.00 20.00    -0.005 C 
ATOM     29 C29  LIG A   1      25.338  28.787   2.623  1.00 20.00    -0.039 C 
ATOM     30 C30  LIG A   1      23.973  28.826   1.926  1.00 20.00    -0.040 C 
ATOM     31 C31  LIG A   1      23.697  27.594   1.060  1.00 20.00    -0.008 C 
ATOM     32 N32  LIG A   1      24.603  27.474  -0.076  1.00 20.00    -0.330 NA
ATOM     33 C33  LIG A   1      21.688  25.171   6.607  1.00 20.00    -0.038 A 
ATOM     34 C34  LIG A   1      21.326  24.202   7.552  1.00 20.00    -0.049 A 
ATOM     35 O35  LIG A   1      20.834  22.236   9.493  1.00 20.00    -0.456 OA
ATOM     36 C36  LIG A   1      20.864  19.469   9.085  1.00 20.00    -0.049 A 
ATOM     37 C37  LIG A   1      20.903  18.082   8.883  1.00 20.00    -0.038 A 
ATOM     38 O38  LIG A   1      21.651  23.427   7.549  1.00 20.00    -0.504 OA
ATOM     39 C39  LIG A   1      21.278  22.116   7.658  1.00 20.00    +0.161 A 
ATOM     40 C40  LIG A   1      22.058  21.082   7.151  1.00 20.00    -0.016 A 
ATOM     41 C41  LIG A   1      21.621  19.759   7.295  1.00 20.00    -0.055 A 
ATOM     42 C42  LIG A   1      20.413  19.477   7.942  1.00 20.00    -0.016 A 
ATOM     43 C43  LIG A   1      19.648  20.523   8.441  1.00 20.00    +0.161 A 
ATOM     44 O44  LIG A   1      18.470  20.252   9.074  1.00 20.00    -0.504 OA
ATOM     45 C45  LIG A   1      20.077  21.836   8.301  1.00 20.00    +0.200 A 
ATOM     46 O46  LIG A   1      19.304  22.848   8.803  1.00 20.00    -0.502 OA
ATOM     47 H47  LIG A   1      14.565   8.531  11.678  1.00 20.00    +0.118 HD
ATOM     48 H48  LIG A   1      14.382   9.675  12.816  1.00 20.00    +0.118 HD
ATOM     49 H49  LIG A   1      13.191  11.099  11.297  1.00 20.00    +0.043 H 
ATOM     50 H50  LIG A   1      13.388   9.856  10.060  1.00 20.00    +0.043 H 
ATOM     51 H51  LIG A   1      15.887  10.044  10.270  1.00 20.00    +0.028 H 
ATOM     52 H52  LIG A   1      15.686  11.281  11.513  1.00 20.00    +0.028 H 
ATOM     53 H53  LIG A   1      14.652  11.498   8.632  1.00 20.00    +0.028 H 
ATOM     54 H54  LIG A   1      14.500  12.751   9.859  1.00 20.00    +0.028 H 
ATOM     55 H55  LIG A   1      16.367  13.163   8.258  1.00 20.00    +0.043 H 
ATOM     56 H56  LIG A   1      17.130  11.640   8.742  1.00 20.00    +0.043 H 
ATOM     57 H57  LIG A   1      16.586  13.944  10.508  1.00 20.00    +0.122 HD
ATOM     58 H58  LIG A   1      18.378  14.360   8.968  1.00 20.00    +0.043 H 
ATOM     59 H59  LIG A   1      19.114  12.829   9.481  1.00 20.00    +0.043 H 
ATOM     60 H60  LIG A   1      18.536  15.224  11.301  1.00 20.00    +0.030 H 
ATOM     61 H61  LIG A   1      19.185  13.680  11.849  1.00 20.00    +0.030 H 
ATOM     62 H62  LIG A   1      21.087  15.158  11.579  1.00 20.00    +0.049 H 
ATOM     63 H63  LIG A   1      21.146  13.938  10.328  1.00 20.00    +0.049 H 
ATOM     64 H64  LIG A   1      21.273  15.600   8.884  1.00 20.00    +0.160 HD
ATOM     65 H65  LIG A   1      19.867  17.084  11.949  1.00 20.00    +0.064 H 
ATOM     66 H66  LIG A   1      19.812  19.477  12.308  1.00 20.00    +0.063 H 
ATOM     67 H67  LIG A   1      19.815  21.923  12.597  1.00 20.00    +0.066 H 
ATOM     68 H68  LIG A   1      20.196  24.488  11.792  1.00 20.00    +0.066 H 
ATOM     69 H69  LIG A   1      21.258  26.186  10.301  1.00 20.00    +0.063 H 
ATOM     70 H70  LIG A   1      21.900  27.852   8.665  1.00 20.00    +0.064 H 
ATOM     71 H71  LIG A   1      22.012  27.131   5.046  1.00 20.00    +0.160 HD
ATOM     72 H72  LIG A   1      22.062  29.330   5.216  1.00 20.00    +0.049 H 
ATOM     73 H73  LIG A   1      21.473  29.159   6.850  1.00 20.00    +0.049 H 
ATOM     74 H74  LIG A   1      23.535  30.394   7.015  1.00 20.00    +0.030 H 
ATOM     75 H75  LIG A   1      23.916  28.782   7.603  1.00 20.00    +0.030 H 
ATOM     76 H76  LIG A   1      25.717  29.427   6.184  1.00 20.00    +0.043 H 
ATOM     77 H77  LIG A   1      24.808  28.189   5.313  1.00 20.00    +0.043 H 
ATOM     78 H78  LIG A   1      24.672  31.120   4.959  1.00 20.00    +0.122 HD
ATOM     79 H79  LIG A   1      25.567  30.903   2.897  1.00 20.00    +0.043 H 
ATOM     80 H80  LIG A   1      26.592  29.950   3.956  1.00 20.00    +0.043 H 
ATOM     81 H81  LIG A   1      25.435  27.858   3.197  1.00 20.00    +0.028 H 
ATOM     82 H82  LIG A   1      26.136  28.767   1.870  1.00 20.00    +0.028 H 
ATOM     83 H83  LIG A   1      23.899  29.734   1.314  1.00 20.00    +0.028 H 
ATOM     84 H84  LIG A   1      23.177  28.888   2.677  1.00 20.00    +0.028 H 
ATOM     85 H85  LIG A   1      23.758  26.683   1.668  1.00 20.00    +0.043 H 
ATOM     86 H86  LIG A   1      22.671  27.652   0.678  1.00 20.00    +0.043 H 
ATOM     87 H87  LIG A   1      24.613  28.349  -0.598  1.00 20.00    +0.118 HD
ATOM     88 H88  LIG A   1      25.554  27.325   0.253  1.00 20.00    +0.118 HD
ATOM     89 H89  LIG A   1      21.835  24.858   5.577  1.00 20.00    +0.064 H 
ATOM     90 H90  LIG A   1      21.189  23.175   7.220  1.00 20.00    +0.063 H 
ATOM     91 H91  LIG A   1      21.131  20.122   8.258  1.00 20.00    +0.063 H 
ATOM     92 H92  LIG A   1      21.184  17.712   7.901  1.00 20.00    +0.064 H 
ATOM     93 H93  LIG A   1      22.510  23.459   7.094  1.00 20.00    +0.293 HD
ATOM     94 H94  LIG A   1      22.998  21.278   6.645  1.00 20.00    +0.066 H 
ATOM     95 H95  LIG A   1      22.222  18.942   6.902  1.00 20.00    +0.063 H 
ATOM     96 H96  LIG A   1      20.071  18.453   8.055  1.00 20.00    +0.066 H 
ATOM     97 H97  LIG A   1      18.125  21.130   9.332  1.00 20.00    +0.293 HD
ATOM     98 H98  LIG A   1      19.802  23.660   8.579  1.00 20.00    +0.293 HD
ENDROOT
TORSDOF 0
                                                                                                     
ENDMDL
MODEL 7
REMARK VINA RESULT:    -9.890      4.661     14.834
REMARK INTER + INTRA:          -9.890
REMARK INTER:                  -9.890
REMARK INTRA:                   0.000
REMARK UNBOUND:                 0.000
ROOT
ATOM      1 N1   LIG A   1      26.117  25.014  15.538  1.00 20.00    -0.330 NA
ATOM      2 C2   LIG A   1      24.798  24.999  14.914  1.00 20.00    -0.008 C 
ATOM      3 C3   LIG A   1      24.220  23.585  14.885  1.00 20.00    -0.040 C 
ATOM      4 C4   LIG A   1      22.834  23.568  14.231  1.00 20.00    -0.039 C 
ATOM      5 C5   LIG A   1      22.186  22.181  14.239  1.00 20.00    -0.005 C 
ATOM      6 N6   LIG A   1      22.963  21.232  13.439  1.00 20.00    -0.317 NA
ATOM      7 C7   LIG A   1      22.351  19.900  13.462  1.00 20.00    -0.003 C 
ATOM      8 C8   LIG A   1      23.192  18.932  12.626  1.00 20.00    -0.023 C 
ATOM      9 C9   LIG A   1      22.671  17.497  12.711  1.00 20.00    +0.016 C 
ATOM     10 N10  LIG A   1      21.336  17.373  12.134  1.00 20.00    -0.385 NA
ATOM     11 C11  LIG A   1      21.145  17.019  10.798  1.00 20.00    +0.034 A 
ATOM     12 C12  LIG A   1      22.123  17.130   9.807  1.00 20.00    -0.038 A 
ATOM     13 C13  LIG A   1      21.847  16.810   8.468  1.00 20.00    -0.049 A 
ATOM     14 C14  LIG A   1      20.572  16.394   8.072  1.00 20.00    +0.017 A 
ATOM     15 C15  LIG A   1      20.294  16.045   6.680  1.00 20.00    +0.134 A 
ATOM     16 C16  LIG A   1      21.045  16.009   5.522  1.00 20.00    -0.015 A 
ATOM     17 C17  LIG A   1      20.186  15.556   4.491  1.00 20.00    -0.015 A 
ATOM     18 C18  LIG A   1      18.951  15.341   5.067  1.00 20.00    +0.134 A 
ATOM     19 C19  LIG A   1      17.658  14.874   4.575  1.00 20.00    +0.017 A 
ATOM     20 C20  LIG A   1      17.539  14.304   3.303  1.00 20.00    -0.049 A 
ATOM     21 C21  LIG A   1      16.299  13.851   2.825  1.00 20.00    -0.038 A 
ATOM     22 C22  LIG A   1      15.135  13.978   3.586  1.00 20.00    +0.034 A 
ATOM     23 N23  LIG A   1      13.891  13.489   3.199  1.00 20.00    -0.385 NA
ATOM     24 C24  LIG A   1      13.580  13.127   1.819  1.00 20.00    +0.016 C 
ATOM     25 C25  LIG A   1      13.841  11.641   1.569  1.00 20.00    -0.023 C 
ATOM     26 C26  LIG A   1      12.866  10.722   2.312  1.00 20.00    -0.003 C 
ATOM     27 N27  LIG A   1      11.516  10.819   1.741  1.00 20.00    -0.317 NA
ATOM     28 C28  LIG A   1      10.536  10.042   2.503  1.00 20.00    -0.005 C 
ATOM     29 C29  LIG A   1      10.115  10.691   3.828  1.00 20.00    -0.039 C 
ATOM     30 C30  LIG A   1       9.515  12.090   3.644  1.00 20.00    -0.040 C 
ATOM     31 C31  LIG A   1       9.135  12.767   4.963  1.00 20.00    -0.008 C 
ATOM     32 N32  LIG A   1       8.065  12.080   5.676  1.00 20.00    -0.330 NA
ATOM     33 C33  LIG A   1      15.267  14.518   4.872  1.00 20.00    -0.038 A 
ATOM     34 C34  LIG A   1      16.502  14.967   5.356  1.00 20.00    -0.049 A 
ATOM     35 O35  LIG A   1      19.018  15.643   6.399  1.00 20.00    -0.456 OA
ATOM     36 C36  LIG A   1      19.577  16.328   9.053  1.00 20.00    -0.049 A 
ATOM     37 C37  LIG A   1      19.858  16.647  10.388  1.00 20.00    -0.038 A 
ATOM     38 O38  LIG A   1      16.747  14.839   6.150  1.00 20.00    -0.504 OA
ATOM     39 C39  LIG A   1      17.315  15.495   7.208  1.00 20.00    +0.161 A 
ATOM     40 C40  LIG A   1      17.153  15.060   8.519  1.00 20.00    -0.016 A 
ATOM     41 C41  LIG A   1      17.761  15.775   9.558  1.00 20.00    -0.055 A 
ATOM     42 C42  LIG A   1      18.523  16.916   9.285  1.00 20.00    -0.016 A 
ATOM     43 C43  LIG A   1      18.673  17.335   7.969  1.00 20.00    +0.161 A 
ATOM     44 O44  LIG A   1      19.417  18.446   7.698  1.00 20.00    -0.504 OA
ATOM     45 C45  LIG A   1      18.073  16.629   6.934  1.00 20.00    +0.200 A 
ATOM     46 O46  LIG A   1      18.238  17.063   5.647  1.00 20.00    -0.502 OA
ATOM     47 H47  LIG A   1      26.048  24.633  16.482  1.00 20.00    +0.118 HD
ATOM     48 H48  LIG A   1      26.735  24.381  15.032  1.00 20.00    +0.118 HD
ATOM     49 H49  LIG A   1      24.883  25.395  13.895  1.00 20.00    +0.043 H 
ATOM     50 H50  LIG A   1      24.135  25.670  15.470  1.00 20.00    +0.043 H 
ATOM     51 H51  LIG A   1      24.145  23.194  15.908  1.00 20.00    +0.028 H 
ATOM     52 H52  LIG A   1      24.901  22.924  14.336  1.00 20.00    +0.028 H 
ATOM     53 H53  LIG A   1      22.173  24.259  14.769  1.00 20.00    +0.028 H 
ATOM     54 H54  LIG A   1      22.905  23.940  13.201  1.00 20.00    +0.028 H 
ATOM     55 H55  LIG A   1      21.170  22.266  13.836  1.00 20.00    +0.043 H 
ATOM     56 H56  LIG A   1      22.106  21.828  15.274  1.00 20.00    +0.043 H 
ATOM     57 H57  LIG A   1      23.006  21.562  12.474  1.00 20.00    +0.122 HD
ATOM     58 H58  LIG A   1      21.330  19.950  13.065  1.00 20.00    +0.043 H 
ATOM     59 H59  LIG A   1      22.298  19.536  14.495  1.00 20.00    +0.043 H 
ATOM     60 H60  LIG A   1      23.219  19.274  11.585  1.00 20.00    +0.030 H 
ATOM     61 H61  LIG A   1      24.227  18.942  12.992  1.00 20.00    +0.030 H 
ATOM     62 H62  LIG A   1      23.377  16.799  12.246  1.00 20.00    +0.049 H 
ATOM     63 H63  LIG A   1      22.615  17.202  13.766  1.00 20.00    +0.049 H 
ATOM     64 H64  LIG A   1      20.687  16.883  12.746  1.00 20.00    +0.160 HD
ATOM     65 H65  LIG A   1      23.128  17.462  10.048  1.00 20.00    +0.064 H 
ATOM     66 H66  LIG A   1      22.652  16.897   7.743  1.00 20.00    +0.063 H 
ATOM     67 H67  LIG A   1      22.089  16.273   5.427  1.00 20.00    +0.066 H 
ATOM     68 H68  LIG A   1      20.441  15.407   3.452  1.00 20.00    +0.066 H 
ATOM     69 H69  LIG A   1      18.410  14.185   2.665  1.00 20.00    +0.063 H 
ATOM     70 H70  LIG A   1      16.275  13.395   1.840  1.00 20.00    +0.064 H 
ATOM     71 H71  LIG A   1      13.117  13.953   3.670  1.00 20.00    +0.160 HD
ATOM     72 H72  LIG A   1      12.526  13.358   1.629  1.00 20.00    +0.049 H 
ATOM     73 H73  LIG A   1      14.147  13.742   1.110  1.00 20.00    +0.049 H 
ATOM     74 H74  LIG A   1      13.780  11.443   0.491  1.00 20.00    +0.030 H 
ATOM     75 H75  LIG A   1      14.862  11.380   1.874  1.00 20.00    +0.030 H 
ATOM     76 H76  LIG A   1      13.222   9.688   2.222  1.00 20.00    +0.043 H 
ATOM     77 H77  LIG A   1      12.871  10.976   3.377  1.00 20.00    +0.043 H 
ATOM     78 H78  LIG A   1      11.546  10.458   0.787  1.00 20.00    +0.122 HD
ATOM     79 H79  LIG A   1       9.641   9.930   1.878  1.00 20.00    +0.043 H 
ATOM     80 H80  LIG A   1      10.908   9.027   2.687  1.00 20.00    +0.043 H 
ATOM     81 H81  LIG A   1      10.965  10.741   4.517  1.00 20.00    +0.028 H 
ATOM     82 H82  LIG A   1       9.376  10.032   4.299  1.00 20.00    +0.028 H 
ATOM     83 H83  LIG A   1       8.634  12.029   2.991  1.00 20.00    +0.028 H 
ATOM     84 H84  LIG A   1      10.238  12.738   3.135  1.00 20.00    +0.028 H 
ATOM     85 H85  LIG A   1      10.013  12.842   5.616  1.00 20.00    +0.043 H 
ATOM     86 H86  LIG A   1       8.807  13.792   4.754  1.00 20.00    +0.043 H 
ATOM     87 H87  LIG A   1       7.276  11.932   5.047  1.00 20.00    +0.118 HD
ATOM     88 H88  LIG A   1       8.378  11.155   5.964  1.00 20.00    +0.118 HD
ATOM     89 H89  LIG A   1      14.399  14.591   5.522  1.00 20.00    +0.064 H 
ATOM     90 H90  LIG A   1      16.547  15.388   6.359  1.00 20.00    +0.063 H 
ATOM     91 H91  LIG A   1      18.564  16.028   8.792  1.00 20.00    +0.063 H 
ATOM     92 H92  LIG A   1      19.048  16.600  11.111  1.00 20.00    +0.064 H 
ATOM     93 H93  LIG A   1      16.268  14.068   6.497  1.00 20.00    +0.293 HD
ATOM     94 H94  LIG A   1      16.565  14.178   8.754  1.00 20.00    +0.066 H 
ATOM     95 H95  LIG A   1      17.641  15.445  10.588  1.00 20.00    +0.063 H 
ATOM     96 H96  LIG A   1      18.995  17.473  10.088  1.00 20.00    +0.066 H 
ATOM     97 H97  LIG A   1      19.378  18.533   6.724  1.00 20.00    +0.293 HD
ATOM     98 H98  LIG A   1      17.725  16.421   5.114  1.00 20.00    +0.293 HD
ENDROOT
TORSDOF 0
                                                                                                     
ENDMDL
MODEL 8
REMARK VINA RESULT:    -9.710      2.806     14.405
REMARK INTER + INTRA:          -9.710
REMARK INTER:                  -9.710
REMARK INTRA:                   0.000
REMARK UNBOUND:                 0.000
ROOT
ATOM      1 N1   LIG A   1      23.419  29.025  16.278  1.00 20.00    -0.330 NA
ATOM      2 C2   LIG A   1      22.207  28.513  15.646  1.00 20.00    -0.008 C 
ATOM      3 C3   LIG A   1      22.200  26.985  15.630  1.00 20.00    -0.040 C 
ATOM      4 C4   LIG A   1      20.926  26.447  14.969  1.00 20.00    -0.039 C 
ATOM      5 C5   LIG A   1      20.844  24.917  14.988  1.00 20.00    -0.005 C 
ATOM      6 N6   LIG A   1      21.926  24.322  14.203  1.00 20.00    -0.317 NA
ATOM      7 C7   LIG A   1      21.856  22.858  14.237  1.00 20.00    -0.003 C 
ATOM      8 C8   LIG A   1      23.005  22.267  13.415  1.00 20.00    -0.023 C 
ATOM      9 C9   LIG A   1      23.057  20.742  13.513  1.00 20.00    +0.016 C 
ATOM     10 N10  LIG A   1      21.871  20.124  12.930  1.00 20.00    -0.385 NA
ATOM     11 C11  LIG A   1      21.838  19.713  11.597  1.00 20.00    +0.034 A 
ATOM     12 C12  LIG A   1      22.712  20.174  10.610  1.00 20.00    -0.038 A 
ATOM     13 C13  LIG A   1      22.588  19.763   9.273  1.00 20.00    -0.049 A 
ATOM     14 C14  LIG A   1      21.564  18.897   8.876  1.00 20.00    +0.017 A 
ATOM     15 C15  LIG A   1      21.449  18.459   7.486  1.00 20.00    +0.134 A 
ATOM     16 C16  LIG A   1      22.170  18.697   6.332  1.00 20.00    -0.015 A 
ATOM     17 C17  LIG A   1      21.551  17.947   5.302  1.00 20.00    -0.015 A 
ATOM     18 C18  LIG A   1      20.481  17.291   5.873  1.00 20.00    +0.134 A 
ATOM     19 C19  LIG A   1      19.461  16.371   5.379  1.00 20.00    +0.017 A 
ATOM     20 C20  LIG A   1      19.575  15.788   4.113  1.00 20.00    -0.049 A 
ATOM     21 C21  LIG A   1      18.598  14.900   3.633  1.00 20.00    -0.038 A 
ATOM     22 C22  LIG A   1      17.464  14.589   4.386  1.00 20.00    +0.034 A 
ATOM     23 N23  LIG A   1      16.496  13.667   3.998  1.00 20.00    -0.385 NA
ATOM     24 C24  LIG A   1      16.356  13.204   2.620  1.00 20.00    +0.016 C 
ATOM     25 C25  LIG A   1      17.155  11.921   2.387  1.00 20.00    -0.023 C 
ATOM     26 C26  LIG A   1      16.588  10.711   3.136  1.00 20.00    -0.003 C 
ATOM     27 N27  LIG A   1      15.304  10.292   2.557  1.00 20.00    -0.317 NA
ATOM     28 C28  LIG A   1      14.679   9.211   3.321  1.00 20.00    -0.005 C 
ATOM     29 C29  LIG A   1      14.034   9.666   4.637  1.00 20.00    -0.039 C 
ATOM     30 C30  LIG A   1      12.956  10.738   4.435  1.00 20.00    -0.040 C 
ATOM     31 C31  LIG A   1      12.339  11.235   5.745  1.00 20.00    -0.008 C 
ATOM     32 N32  LIG A   1      11.597  10.203   6.459  1.00 20.00    -0.330 NA
ATOM     33 C33  LIG A   1      17.373  15.149   5.667  1.00 20.00    -0.038 A 
ATOM     34 C34  LIG A   1      18.347  16.032   6.153  1.00 20.00    -0.049 A 
ATOM     35 O35  LIG A   1      20.419  17.607   7.202  1.00 20.00    -0.456 OA
ATOM     36 C36  LIG A   1      20.657  18.472   9.851  1.00 20.00    -0.049 A 
ATOM     37 C37  LIG A   1      20.787  18.884  11.185  1.00 20.00    -0.038 A 
ATOM     38 O38  LIG A   1      18.615  16.011   6.950  1.00 20.00    -0.504 OA
ATOM     39 C39  LIG A   1      18.887  16.840   8.003  1.00 20.00    +0.161 A 
ATOM     40 C40  LIG A   1      18.887  16.387   9.318  1.00 20.00    -0.016 A 
ATOM     41 C41  LIG A   1      19.174  17.285  10.353  1.00 20.00    -0.055 A 
ATOM     42 C42  LIG A   1      19.458  18.626  10.071  1.00 20.00    -0.016 A 
ATOM     43 C43  LIG A   1      19.453  19.060   8.752  1.00 20.00    +0.161 A 
ATOM     44 O44  LIG A   1      19.730  20.366   8.473  1.00 20.00    -0.504 OA
ATOM     45 C45  LIG A   1      19.169  18.173   7.722  1.00 20.00    +0.200 A 
ATOM     46 O46  LIG A   1      19.171  18.626   6.431  1.00 20.00    -0.502 OA
ATOM     47 H47  LIG A   1      23.489  28.653  17.225  1.00 20.00    +0.118 HD
ATOM     48 H48  LIG A   1      24.234  28.665  15.781  1.00 20.00    +0.118 HD
ATOM     49 H49  LIG A   1      22.147  28.904  14.624  1.00 20.00    +0.043 H 
ATOM     50 H50  LIG A   1      21.337  28.892  16.192  1.00 20.00    +0.043 H 
ATOM     51 H51  LIG A   1      22.268  26.603  16.656  1.00 20.00    +0.028 H 
ATOM     52 H52  LIG A   1      23.083  26.622  15.091  1.00 20.00    +0.028 H 
ATOM     53 H53  LIG A   1      20.051  26.845  15.496  1.00 20.00    +0.028 H 
ATOM     54 H54  LIG A   1      20.863  26.809  13.935  1.00 20.00    +0.028 H 
ATOM     55 H55  LIG A   1      19.874  24.613  14.578  1.00 20.00    +0.043 H 
ATOM     56 H56  LIG A   1      20.892  24.569  16.027  1.00 20.00    +0.043 H 
ATOM     57 H57  LIG A   1      21.851  24.635  13.234  1.00 20.00    +0.122 HD
ATOM     58 H58  LIG A   1      20.894  22.519  13.834  1.00 20.00    +0.043 H 
ATOM     59 H59  LIG A   1      21.934  22.508  15.273  1.00 20.00    +0.043 H 
ATOM     60 H60  LIG A   1      22.912  22.586  12.371  1.00 20.00    +0.030 H 
ATOM     61 H61  LIG A   1      23.958  22.666  13.786  1.00 20.00    +0.030 H 
ATOM     62 H62  LIG A   1      23.977  20.354  13.059  1.00 20.00    +0.049 H 
ATOM     63 H63  LIG A   1      23.106  20.457  14.571  1.00 20.00    +0.049 H 
ATOM     64 H64  LIG A   1      21.447  19.431  13.544  1.00 20.00    +0.160 HD
ATOM     65 H65  LIG A   1      23.518  20.860  10.853  1.00 20.00    +0.064 H 
ATOM     66 H66  LIG A   1      23.308  20.139   8.552  1.00 20.00    +0.063 H 
ATOM     67 H67  LIG A   1      23.040  19.331   6.240  1.00 20.00    +0.066 H 
ATOM     68 H68  LIG A   1      21.853  17.896   4.265  1.00 20.00    +0.066 H 
ATOM     69 H69  LIG A   1      20.433  15.998   3.481  1.00 20.00    +0.063 H 
ATOM     70 H70  LIG A   1      18.755  14.460   2.653  1.00 20.00    +0.064 H 
ATOM     71 H71  LIG A   1      15.601  13.813   4.460  1.00 20.00    +0.160 HD
ATOM     72 H72  LIG A   1      15.293  13.023   2.422  1.00 20.00    +0.049 H 
ATOM     73 H73  LIG A   1      16.658  13.981   1.908  1.00 20.00    +0.049 H 
ATOM     74 H74  LIG A   1      17.182  11.706   1.311  1.00 20.00    +0.030 H 
ATOM     75 H75  LIG A   1      18.197  12.064   2.701  1.00 20.00    +0.030 H 
ATOM     76 H76  LIG A   1      17.305   9.884   3.058  1.00 20.00    +0.043 H 
ATOM     77 H77  LIG A   1      16.488  10.957   4.198  1.00 20.00    +0.043 H 
ATOM     78 H78  LIG A   1      15.476   9.961   1.606  1.00 20.00    +0.122 HD
ATOM     79 H79  LIG A   1      13.896   8.768   2.693  1.00 20.00    +0.043 H 
ATOM     80 H80  LIG A   1      15.402   8.410   3.518  1.00 20.00    +0.043 H 
ATOM     81 H81  LIG A   1      14.798  10.036   5.330  1.00 20.00    +0.028 H 
ATOM     82 H82  LIG A   1      13.590   8.782   5.111  1.00 20.00    +0.028 H 
ATOM     83 H83  LIG A   1      12.168  10.347   3.778  1.00 20.00    +0.028 H 
ATOM     84 H84  LIG A   1      13.389  11.605   3.922  1.00 20.00    +0.028 H 
ATOM     85 H85  LIG A   1      13.120  11.637   6.401  1.00 20.00    +0.043 H 
ATOM     86 H86  LIG A   1      11.654  12.061   5.523  1.00 20.00    +0.043 H 
ATOM     87 H87  LIG A   1      10.926   9.766   5.828  1.00 20.00    +0.118 HD
ATOM     88 H88  LIG A   1      12.230   9.465   6.759  1.00 20.00    +0.118 HD
ATOM     89 H89  LIG A   1      16.535  14.898   6.312  1.00 20.00    +0.064 H 
ATOM     90 H90  LIG A   1      18.222  16.447   7.151  1.00 20.00    +0.063 H 
ATOM     91 H91  LIG A   1      19.832  17.814   9.588  1.00 20.00    +0.063 H 
ATOM     92 H92  LIG A   1      20.047  18.543  11.904  1.00 20.00    +0.064 H 
ATOM     93 H93  LIG A   1      18.455  15.119   7.302  1.00 20.00    +0.293 HD
ATOM     94 H94  LIG A   1      18.670  15.351   9.560  1.00 20.00    +0.066 H 
ATOM     95 H95  LIG A   1      19.177  16.943  11.386  1.00 20.00    +0.063 H 
ATOM     96 H96  LIG A   1      19.680  19.325  10.871  1.00 20.00    +0.066 H 
ATOM     97 H97  LIG A   1      19.669  20.424   7.498  1.00 20.00    +0.293 HD
ATOM     98 H98  LIG A   1      18.940  17.835   5.902  1.00 20.00    +0.293 HD
ENDROOT
TORSDOF 0
                                                                                                     
ENDMDL
MODEL 9
REMARK VINA RESULT:    -9.664      2.395      2.824
REMARK INTER + INTRA:          -9.664
REMARK INTER:                  -9.664
REMARK INTRA:                   0.000
REMARK UNBOUND:                 0.000
ROOT
ATOM      1 N1   LIG A   1      22.626  10.023   2.998  1.00 20.00    -0.330 NA
ATOM      2 C2   LIG A   1      21.494  10.771   3.536  1.00 20.00    -0.008 C 
ATOM      3 C3   LIG A   1      21.772  12.274   3.520  1.00 20.00    -0.040 C 
ATOM      4 C4   LIG A   1      20.583  13.060   4.083  1.00 20.00    -0.039 C 
ATOM      5 C5   LIG A   1      20.790  14.577   4.026  1.00 20.00    -0.005 C 
ATOM      6 N6   LIG A   1      21.914  14.987   4.868  1.00 20.00    -0.317 NA
ATOM      7 C7   LIG A   1      22.121  16.437   4.799  1.00 20.00    -0.003 C 
ATOM      8 C8   LIG A   1      23.308  16.831   5.683  1.00 20.00    -0.023 C 
ATOM      9 C9   LIG A   1      23.650  18.316   5.556  1.00 20.00    +0.016 C 
ATOM     10 N10  LIG A   1      22.567  19.162   6.045  1.00 20.00    -0.385 NA
ATOM     11 C11  LIG A   1      22.529  19.616   7.364  1.00 20.00    +0.034 A 
ATOM     12 C12  LIG A   1      23.239  19.035   8.417  1.00 20.00    -0.038 A 
ATOM     13 C13  LIG A   1      23.112  19.505   9.733  1.00 20.00    -0.049 A 
ATOM     14 C14  LIG A   1      22.246  20.559  10.044  1.00 20.00    +0.017 A 
ATOM     15 C15  LIG A   1      22.129  21.057  11.413  1.00 20.00    +0.134 A 
ATOM     16 C16  LIG A   1      22.720  20.727  12.617  1.00 20.00    -0.015 A 
ATOM     17 C17  LIG A   1      22.191  21.613  13.588  1.00 20.00    -0.015 A 
ATOM     18 C18  LIG A   1      21.299  22.437  12.932  1.00 20.00    +0.134 A 
ATOM     19 C19  LIG A   1      20.441  23.547  13.338  1.00 20.00    +0.017 A 
ATOM     20 C20  LIG A   1      20.584  24.140  14.596  1.00 20.00    -0.049 A 
ATOM     21 C21  LIG A   1      19.763  25.209  14.990  1.00 20.00    -0.038 A 
ATOM     22 C22  LIG A   1      18.755  25.699  14.157  1.00 20.00    +0.034 A 
ATOM     23 N23  LIG A   1      17.956  26.797  14.460  1.00 20.00    -0.385 NA
ATOM     24 C24  LIG A   1      17.819  27.323  15.815  1.00 20.00    +0.016 C 
ATOM     25 C25  LIG A   1      18.829  28.443  16.074  1.00 20.00    -0.023 C 
ATOM     26 C26  LIG A   1      18.545  29.712  15.264  1.00 20.00    -0.003 C 
ATOM     27 N27  LIG A   1      17.330  30.381  15.747  1.00 20.00    -0.317 NA
ATOM     28 C28  LIG A   1      16.966  31.533  14.919  1.00 20.00    -0.005 C 
ATOM     29 C29  LIG A   1      16.330  31.161  13.574  1.00 20.00    -0.039 C 
ATOM     30 C30  LIG A   1      15.060  30.315  13.726  1.00 20.00    -0.040 C 
ATOM     31 C31  LIG A   1      14.443  29.899  12.389  1.00 20.00    -0.008 C 
ATOM     32 N32  LIG A   1      13.952  31.026  11.604  1.00 20.00    -0.330 NA
ATOM     33 C33  LIG A   1      18.641  25.123  12.885  1.00 20.00    -0.038 A 
ATOM     34 C34  LIG A   1      19.460  24.060  12.484  1.00 20.00    -0.049 A 
ATOM     35 O35  LIG A   1      21.261  22.094  11.609  1.00 20.00    -0.456 OA
ATOM     36 C36  LIG A   1      21.496  21.112   9.001  1.00 20.00    -0.049 A 
ATOM     37 C37  LIG A   1      21.629  20.639   7.688  1.00 20.00    -0.038 A 
ATOM     38 O38  LIG A   1      19.776  24.004  11.706  1.00 20.00    -0.504 OA
ATOM     39 C39  LIG A   1      19.952  23.105  10.691  1.00 20.00    +0.161 A 
ATOM     40 C40  LIG A   1      20.119  23.506   9.370  1.00 20.00    -0.016 A 
ATOM     41 C41  LIG A   1      20.296  22.536   8.376  1.00 20.00    -0.055 A 
ATOM     42 C42  LIG A   1      20.306  21.176   8.705  1.00 20.00    -0.016 A 
ATOM     43 C43  LIG A   1      20.138  20.795  10.030  1.00 20.00    +0.161 A 
ATOM     44 O44  LIG A   1      20.148  19.470  10.354  1.00 20.00    -0.504 OA
ATOM     45 C45  LIG A   1      19.962  21.753  11.019  1.00 20.00    +0.200 A 
ATOM     46 O46  LIG A   1      19.800  21.350  12.317  1.00 20.00    -0.502 OA
ATOM     47 H47  LIG A   1      22.822  10.343   2.050  1.00 20.00    +0.118 HD
ATOM     48 H48  LIG A   1      23.461  10.242   3.540  1.00 20.00    +0.118 HD
ATOM     49 H49  LIG A   1      21.299  10.432   4.560  1.00 20.00    +0.043 H 
ATOM     50 H50  LIG A   1      20.604  10.542   2.942  1.00 20.00    +0.043 H 
ATOM     51 H51  LIG A   1      21.973  12.602   2.492  1.00 20.00    +0.028 H 
ATOM     52 H52  LIG A   1      22.673  12.484   4.108  1.00 20.00    +0.028 H 
ATOM     53 H53  LIG A   1      19.683  12.814   3.507  1.00 20.00    +0.028 H 
ATOM     54 H54  LIG A   1      20.390  12.750   5.117  1.00 20.00    +0.028 H 
ATOM     55 H55  LIG A   1      19.870  15.069   4.363  1.00 20.00    +0.043 H 
ATOM     56 H56  LIG A   1      20.967  14.876   2.985  1.00 20.00    +0.043 H 
ATOM     57 H57  LIG A   1      21.722  14.725   5.836  1.00 20.00    +0.122 HD
ATOM     58 H58  LIG A   1      21.217  16.961   5.129  1.00 20.00    +0.043 H 
ATOM     59 H59  LIG A   1      22.327  16.731   3.763  1.00 20.00    +0.043 H 
ATOM     60 H60  LIG A   1      23.092  16.570   6.725  1.00 20.00    +0.030 H 
ATOM     61 H61  LIG A   1      24.190  16.250   5.384  1.00 20.00    +0.030 H 
ATOM     62 H62  LIG A   1      24.597  18.541   6.062  1.00 20.00    +0.049 H 
ATOM     63 H63  LIG A   1      23.817  18.552   4.498  1.00 20.00    +0.049 H 
ATOM     64 H64  LIG A   1      22.318  19.901   5.390  1.00 20.00    +0.160 HD
ATOM     65 H65  LIG A   1      23.916  18.204   8.243  1.00 20.00    +0.064 H 
ATOM     66 H66  LIG A   1      23.704  19.027  10.509  1.00 20.00    +0.063 H 
ATOM     67 H67  LIG A   1      23.449  19.947  12.780  1.00 20.00    +0.066 H 
ATOM     68 H68  LIG A   1      22.432  21.642  14.641  1.00 20.00    +0.066 H 
ATOM     69 H69  LIG A   1      21.347  23.795  15.288  1.00 20.00    +0.063 H 
ATOM     70 H70  LIG A   1      19.938  25.644  15.970  1.00 20.00    +0.064 H 
ATOM     71 H71  LIG A   1      17.079  26.805  13.942  1.00 20.00    +0.160 HD
ATOM     72 H72  LIG A   1      16.799  27.705  15.938  1.00 20.00    +0.049 H 
ATOM     73 H73  LIG A   1      17.926  26.528  16.563  1.00 20.00    +0.049 H 
ATOM     74 H74  LIG A   1      18.829  28.685  17.144  1.00 20.00    +0.030 H 
ATOM     75 H75  LIG A   1      19.843  28.099  15.834  1.00 20.00    +0.030 H 
ATOM     76 H76  LIG A   1      19.398  30.394  15.371  1.00 20.00    +0.043 H 
ATOM     77 H77  LIG A   1      18.467  29.454  14.202  1.00 20.00    +0.043 H 
ATOM     78 H78  LIG A   1      17.501  30.706  16.699  1.00 20.00    +0.122 HD
ATOM     79 H79  LIG A   1      16.242  32.134  15.485  1.00 20.00    +0.043 H 
ATOM     80 H80  LIG A   1      17.837  32.179  14.754  1.00 20.00    +0.043 H 
ATOM     81 H81  LIG A   1      17.052  30.634  12.941  1.00 20.00    +0.028 H 
ATOM     82 H82  LIG A   1      16.089  32.096  13.052  1.00 20.00    +0.028 H 
ATOM     83 H83  LIG A   1      14.319  30.868  14.320  1.00 20.00    +0.028 H 
ATOM     84 H84  LIG A   1      15.290  29.400  14.284  1.00 20.00    +0.028 H 
ATOM     85 H85  LIG A   1      15.173  29.337  11.794  1.00 20.00    +0.043 H 
ATOM     86 H86  LIG A   1      13.602  29.222  12.581  1.00 20.00    +0.043 H 
ATOM     87 H87  LIG A   1      13.337  31.600  12.180  1.00 20.00    +0.118 HD
ATOM     88 H88  LIG A   1      14.730  31.623  11.332  1.00 20.00    +0.118 HD
ATOM     89 H89  LIG A   1      17.906  25.504  12.180  1.00 20.00    +0.064 H 
ATOM     90 H90  LIG A   1      19.322  23.642  11.489  1.00 20.00    +0.063 H 
ATOM     91 H91  LIG A   1      20.794  21.920   9.194  1.00 20.00    +0.063 H 
ATOM     92 H92  LIG A   1      21.011  21.087   6.914  1.00 20.00    +0.064 H 
ATOM     93 H93  LIG A   1      19.808  24.898  11.325  1.00 20.00    +0.293 HD
ATOM     94 H94  LIG A   1      20.114  24.556   9.093  1.00 20.00    +0.066 H 
ATOM     95 H95  LIG A   1      20.426  22.838   7.339  1.00 20.00    +0.063 H 
ATOM     96 H96  LIG A   1      20.442  20.422   7.936  1.00 20.00    +0.066 H 
ATOM     97 H97  LIG A   1      20.017  19.456  11.323  1.00 20.00    +0.293 HD
ATOM     98 H98  LIG A   1      19.689  22.187  12.813  1.00 20.00    +0.293 HD
ENDROOT
TORSDOF 0
                                                                                                     
ENDMDL
