MODEL 1
REMARK VINA RESULT:   -11.041      0.000      0.000
REMARK INTER + INTRA:         -11.041
REMARK INTER:                 -11.041
REMARK INTRA:                   0.000
REMARK UNBOUND:                 0.000
ROOT
ATOM      1 C1   LIG A   1      23.593  23.139   6.866  1.00 20.00    -0.060 C 
ATOM      2 C2   LIG A   1      22.419  24.080   6.837  1.00 20.00    -0.016 C 
ATOM      3 C3   LIG A   1      21.072  23.352   6.584  1.00 20.00    -0.023 C 
ATOM      4 C4   LIG A   1      20.931  22.389   7.738  1.00 20.00    -0.044 A 
ATOM      5 C5   LIG A   1      21.809  21.329   7.642  1.00 20.00    -0.058 A 
ATOM      6 C6   LIG A   1      22.014  20.625   8.800  1.00 20.00    -0.054 A 
ATOM      7 C7   LIG A   1      21.338  21.037   9.918  1.00 20.00    +0.009 A 
ATOM      8 C8   LIG A   1      20.442  22.079  10.052  1.00 20.00    +0.130 A 
ATOM      9 C9   LIG A   1      20.244  22.792   8.840  1.00 20.00    -0.016 A 
ATOM     10 O10  LIG A   1      19.865  22.329  11.205  1.00 20.00    -0.464 OA
ATOM     11 C11  LIG A   1      19.641  23.295  12.054  1.00 20.00    +0.104 C 
ATOM     12 C12  LIG A   1      20.270  24.418  12.368  1.00 20.00    +0.082 C 
ATOM     13 C13  LIG A   1      19.696  25.291  13.422  1.00 20.00    -0.010 A 
ATOM     14 C14  LIG A   1      18.380  25.157  13.818  1.00 20.00    -0.052 A 
ATOM     15 C15  LIG A   1      17.840  25.914  14.862  1.00 20.00    -0.038 A 
ATOM     16 C16  LIG A   1      18.599  26.834  15.548  1.00 20.00    +0.034 A 
ATOM     17 N17  LIG A   1      18.040  27.603  16.616  1.00 20.00    -0.385 NA
ATOM     18 C18  LIG A   1      18.909  28.530  17.280  1.00 20.00    +0.016 C 
ATOM     19 C19  LIG A   1      18.317  29.362  18.353  1.00 20.00    -0.023 C 
ATOM     20 C20  LIG A   1      17.223  30.293  17.983  1.00 20.00    -0.003 C 
ATOM     21 N21  LIG A   1      16.034  29.776  17.448  1.00 20.00    -0.317 NA
ATOM     22 C22  LIG A   1      15.173  29.014  18.258  1.00 20.00    -0.005 C 
ATOM     23 C23  LIG A   1      14.458  29.685  19.368  1.00 20.00    -0.039 C 
ATOM     24 C24  LIG A   1      13.532  30.752  18.942  1.00 20.00    -0.040 C 
ATOM     25 C25  LIG A   1      14.227  31.864  18.220  1.00 20.00    -0.008 C 
ATOM     26 N26  LIG A   1      13.200  32.885  17.896  1.00 20.00    -0.330 NA
ATOM     27 C27  LIG A   1      19.909  26.974  15.161  1.00 20.00    -0.038 A 
ATOM     28 C28  LIG A   1      20.451  26.211  14.111  1.00 20.00    -0.052 A 
ATOM     29 C29  LIG A   1      21.451  24.943  11.701  1.00 20.00    +0.264 C 
ATOM     30 O30  LIG A   1      22.019  26.055  11.999  1.00 20.00    -0.268 OA
ATOM     31 N31  LIG A   1      22.228  24.385  10.603  1.00 20.00    -0.277 NA
ATOM     32 C32  LIG A   1      23.356  23.596  10.888  1.00 20.00    +0.029 C 
ATOM     33 C33  LIG A   1      23.360  22.439  11.742  1.00 20.00    -0.034 C 
ATOM     34 C34  LIG A   1      22.426  21.402  12.070  1.00 20.00    -0.034 C 
ATOM     35 C35  LIG A   1      21.859  20.388  11.182  1.00 20.00    +0.085 C 
ATOM     36 C36  LIG A   1      20.682  19.686  11.760  1.00 20.00    +0.311 C 
ATOM     37 O37  LIG A   1      19.540  19.703  11.220  1.00 20.00    -0.252 OA
ATOM     38 O38  LIG A   1      20.790  18.966  12.946  1.00 20.00    -0.481 OA
ATOM     39 C39  LIG A   1      22.049  24.908   9.292  1.00 20.00    +0.246 C 
ATOM     40 O40  LIG A   1      21.015  25.775   9.475  1.00 20.00    -0.273 OA
ATOM     41 C41  LIG A   1      22.407  24.987   7.952  1.00 20.00    +0.088 C 
ATOM     42 N42  LIG A   1      21.587  26.171   7.412  1.00 20.00    -0.320 NA
ATOM     43 C43  LIG A   1      20.761  24.639  12.031  1.00 20.00    +0.000 C 
ATOM     44 C44  LIG A   1      19.296  24.742  12.391  1.00 20.00    +0.000 C 
ATOM     45 Se45 LIG A   1      18.818  26.571  12.824  1.00 20.00    +0.000 Se
ATOM     46 C46  LIG A   1      18.795  26.908  14.716  1.00 20.00    +0.000 C 
ATOM     47 H47  LIG A   1      24.493  23.870   6.834  1.00 20.00    +0.023 H 
ATOM     48 H48  LIG A   1      23.789  22.600   7.771  1.00 20.00    +0.023 H 
ATOM     49 H49  LIG A   1      23.747  22.612   5.902  1.00 20.00    +0.023 H 
ATOM     50 H50  LIG A   1      22.551  24.636   5.890  1.00 20.00    +0.032 H 
ATOM     51 H51  LIG A   1      20.297  24.087   6.670  1.00 20.00    +0.032 H 
ATOM     52 H52  LIG A   1      21.035  22.785   5.677  1.00 20.00    +0.032 H 
ATOM     53 H53  LIG A   1      22.312  21.017   6.764  1.00 20.00    +0.063 H 
ATOM     54 H54  LIG A   1      22.698  19.771   8.796  1.00 20.00    +0.063 H 
ATOM     55 H55  LIG A   1      19.558  23.617   8.787  1.00 20.00    +0.067 H 
ATOM     56 H56  LIG A   1      18.701  23.155  12.676  1.00 20.00    +0.105 H 
ATOM     57 H57  LIG A   1      17.673  24.489  13.353  1.00 20.00    +0.063 H 
ATOM     58 H58  LIG A   1      16.815  25.802  15.162  1.00 20.00    +0.064 H 
ATOM     59 H59  LIG A   1      17.050  27.424  16.835  1.00 20.00    +0.160 HD
ATOM     60 H60  LIG A   1      19.773  27.905  17.661  1.00 20.00    +0.049 H 
ATOM     61 H61  LIG A   1      19.403  29.221  16.556  1.00 20.00    +0.049 H 
ATOM     62 H62  LIG A   1      19.149  30.011  18.767  1.00 20.00    +0.030 H 
ATOM     63 H63  LIG A   1      17.924  28.713  19.178  1.00 20.00    +0.030 H 
ATOM     64 H64  LIG A   1      17.630  31.037  17.250  1.00 20.00    +0.043 H 
ATOM     65 H65  LIG A   1      17.016  30.918  18.896  1.00 20.00    +0.043 H 
ATOM     66 H66  LIG A   1      16.036  29.521  16.477  1.00 20.00    +0.122 HD
ATOM     67 H67  LIG A   1      14.373  28.593  17.576  1.00 20.00    +0.043 H 
ATOM     68 H68  LIG A   1      15.651  28.096  18.689  1.00 20.00    +0.043 H 
ATOM     69 H69  LIG A   1      15.145  30.001  20.198  1.00 20.00    +0.028 H 
ATOM     70 H70  LIG A   1      13.816  28.886  19.866  1.00 20.00    +0.028 H 
ATOM     71 H71  LIG A   1      13.030  31.151  19.858  1.00 20.00    +0.028 H 
ATOM     72 H72  LIG A   1      12.751  30.262  18.286  1.00 20.00    +0.028 H 
ATOM     73 H73  LIG A   1      15.015  32.277  18.876  1.00 20.00    +0.043 H 
ATOM     74 H74  LIG A   1      14.620  31.489  17.235  1.00 20.00    +0.043 H 
ATOM     75 H75  LIG A   1      13.661  33.817  17.733  1.00 20.00    +0.118 HD
ATOM     76 H76  LIG A   1      12.598  32.905  18.768  1.00 20.00    +0.118 HD
ATOM     77 H77  LIG A   1      20.509  27.696  15.696  1.00 20.00    +0.064 H 
ATOM     78 H78  LIG A   1      21.494  26.405  13.938  1.00 20.00    +0.063 H 
ATOM     79 H79  LIG A   1      23.924  23.319   9.948  1.00 20.00    +0.050 H 
ATOM     80 H80  LIG A   1      24.124  24.339  11.341  1.00 20.00    +0.050 H 
ATOM     81 H81  LIG A   1      23.683  22.863  12.798  1.00 20.00    +0.029 H 
ATOM     82 H82  LIG A   1      24.341  21.918  11.462  1.00 20.00    +0.029 H 
ATOM     83 H83  LIG A   1      23.047  20.731  12.833  1.00 20.00    +0.028 H 
ATOM     84 H84  LIG A   1      21.708  21.793  12.846  1.00 20.00    +0.028 H 
ATOM     85 H85  LIG A   1      22.623  19.615  10.987  1.00 20.00    +0.047 H 
ATOM     86 H86  LIG A   1      19.976  18.568  13.405  1.00 20.00    +0.296 HD
ATOM     87 H87  LIG A   1      23.434  25.546   7.918  1.00 20.00    +0.057 H 
ATOM     88 H88  LIG A   1      20.607  25.874   7.597  1.00 20.00    +0.119 HD
ATOM     89 H89  LIG A   1      21.827  27.006   7.985  1.00 20.00    +0.119 HD
ATOM     90 H90  LIG A   1      20.935  24.187  11.035  1.00 20.00    +0.000 H 
ATOM     91 H91  LIG A   1      21.261  24.011  12.780  1.00 20.00    +0.000 H 
ATOM     92 H92  LIG A   1      21.178  25.664  11.973  1.00 20.00    +0.000 H 
ATOM     93 H93  LIG A   1      18.728  24.435  11.474  1.00 20.00    +0.000 H 
ATOM     94 H94  LIG A   1      19.027  24.090  13.256  1.00 20.00    +0.000 H 
ATOM     95 H95  LIG A   1      19.646  27.589  14.960  1.00 20.00    +0.000 H 
ATOM     96 H96  LIG A   1      18.847  26.004  15.339  1.00 20.00    +0.000 H 
ATOM     97 H97  LIG A   1      17.863  27.445  15.027  1.00 20.00    +0.000 H 
ENDROOT
TORSDOF 0
                                                                                                    
ENDMDL
MODEL 2
REMARK VINA RESULT:   -10.362      7.260     13.468
REMARK INTER + INTRA:         -10.362
REMARK INTER:                 -10.362
REMARK INTRA:                   0.000
REMARK UNBOUND:                 0.000
ROOT
ATOM      1 C1   LIG A   1      22.015  22.267  12.102  1.00 20.00    -0.060 C 
ATOM      2 C2   LIG A   1      20.617  21.820  11.770  1.00 20.00    -0.016 C 
ATOM      3 C3   LIG A   1      19.863  22.830  10.865  1.00 20.00    -0.023 C 
ATOM      4 C4   LIG A   1      20.690  22.911   9.605  1.00 20.00    -0.044 A 
ATOM      5 C5   LIG A   1      21.875  23.591   9.802  1.00 20.00    -0.058 A 
ATOM      6 C6   LIG A   1      22.835  23.394   8.845  1.00 20.00    -0.054 A 
ATOM      7 C7   LIG A   1      22.529  22.558   7.804  1.00 20.00    +0.009 A 
ATOM      8 C8   LIG A   1      21.355  21.874   7.562  1.00 20.00    +0.130 A 
ATOM      9 C9   LIG A   1      20.374  22.094   8.565  1.00 20.00    -0.016 A 
ATOM     10 O10  LIG A   1      21.221  21.120   6.496  1.00 20.00    -0.464 OA
ATOM     11 C11  LIG A   1      20.874  19.917   6.125  1.00 20.00    +0.104 C 
ATOM     12 C12  LIG A   1      20.896  18.725   6.703  1.00 20.00    +0.082 C 
ATOM     13 C13  LIG A   1      20.406  17.550   5.942  1.00 20.00    -0.010 A 
ATOM     14 C14  LIG A   1      19.614  17.707   4.821  1.00 20.00    -0.052 A 
ATOM     15 C15  LIG A   1      19.206  16.618   4.043  1.00 20.00    -0.038 A 
ATOM     16 C16  LIG A   1      19.575  15.332   4.362  1.00 20.00    +0.034 A 
ATOM     17 N17  LIG A   1      19.155  14.225   3.561  1.00 20.00    -0.385 NA
ATOM     18 C18  LIG A   1      19.596  12.920   3.963  1.00 20.00    +0.016 C 
ATOM     19 C19  LIG A   1      19.120  11.769   3.162  1.00 20.00    -0.023 C 
ATOM     20 C20  LIG A   1      17.659  11.516   3.114  1.00 20.00    -0.003 C 
ATOM     21 N21  LIG A   1      16.810  12.498   2.582  1.00 20.00    -0.317 NA
ATOM     22 C22  LIG A   1      16.850  12.790   1.208  1.00 20.00    -0.005 C 
ATOM     23 C23  LIG A   1      16.377  11.767   0.247  1.00 20.00    -0.039 C 
ATOM     24 C24  LIG A   1      14.954  11.405   0.390  1.00 20.00    -0.040 C 
ATOM     25 C25  LIG A   1      14.639  10.828   1.735  1.00 20.00    -0.008 C 
ATOM     26 N26  LIG A   1      13.201  10.462   1.728  1.00 20.00    -0.330 NA
ATOM     27 C27  LIG A   1      20.361  15.165   5.475  1.00 20.00    -0.038 A 
ATOM     28 C28  LIG A   1      20.772  16.261   6.256  1.00 20.00    -0.052 A 
ATOM     29 C29  LIG A   1      21.278  18.458   8.081  1.00 20.00    +0.264 C 
ATOM     30 O30  LIG A   1      21.253  17.298   8.630  1.00 20.00    -0.268 OA
ATOM     31 N31  LIG A   1      21.745  19.373   9.113  1.00 20.00    -0.277 NA
ATOM     32 C32  LIG A   1      23.126  19.560   9.294  1.00 20.00    +0.029 C 
ATOM     33 C33  LIG A   1      24.051  19.940   8.261  1.00 20.00    -0.034 C 
ATOM     34 C34  LIG A   1      23.994  20.748   7.078  1.00 20.00    -0.034 C 
ATOM     35 C35  LIG A   1      23.745  22.187   6.983  1.00 20.00    +0.085 C 
ATOM     36 C36  LIG A   1      23.423  22.642   5.604  1.00 20.00    +0.311 C 
ATOM     37 O37  LIG A   1      22.332  23.204   5.305  1.00 20.00    -0.252 OA
ATOM     38 O38  LIG A   1      24.328  22.463   4.562  1.00 20.00    -0.481 OA
ATOM     39 C39  LIG A   1      20.839  19.794  10.126  1.00 20.00    +0.246 C 
ATOM     40 O40  LIG A   1      19.668  19.247   9.701  1.00 20.00    -0.273 OA
ATOM     41 C41  LIG A   1      20.564  20.457  11.316  1.00 20.00    +0.088 C 
ATOM     42 N42  LIG A   1      19.118  20.049  11.649  1.00 20.00    -0.320 NA
ATOM     43 C43  LIG A   1      21.030  18.648   7.319  1.00 20.00    +0.000 C 
ATOM     44 C44  LIG A   1      19.990  18.678   6.223  1.00 20.00    +0.000 C 
ATOM     45 Se45 LIG A   1      18.843  17.116   6.316  1.00 20.00    +0.000 Se
ATOM     46 C46  LIG A   1      19.371  15.729   5.094  1.00 20.00    +0.000 C 
ATOM     47 H47  LIG A   1      22.317  21.524  12.941  1.00 20.00    +0.023 H 
ATOM     48 H48  LIG A   1      22.788  22.097  11.380  1.00 20.00    +0.023 H 
ATOM     49 H49  LIG A   1      22.039  23.215  12.677  1.00 20.00    +0.023 H 
ATOM     50 H50  LIG A   1      20.072  21.930  12.726  1.00 20.00    +0.032 H 
ATOM     51 H51  LIG A   1      18.921  22.384  10.614  1.00 20.00    +0.032 H 
ATOM     52 H52  LIG A   1      19.782  23.817  11.270  1.00 20.00    +0.032 H 
ATOM     53 H53  LIG A   1      22.088  24.246  10.608  1.00 20.00    +0.063 H 
ATOM     54 H54  LIG A   1      23.800  23.903   8.939  1.00 20.00    +0.063 H 
ATOM     55 H55  LIG A   1      19.401  21.643   8.499  1.00 20.00    +0.067 H 
ATOM     56 H56  LIG A   1      20.460  19.861   5.068  1.00 20.00    +0.105 H 
ATOM     57 H57  LIG A   1      19.240  18.656   4.473  1.00 20.00    +0.063 H 
ATOM     58 H58  LIG A   1      18.591  16.752   3.174  1.00 20.00    +0.064 H 
ATOM     59 H59  LIG A   1      18.571  14.450   2.743  1.00 20.00    +0.160 HD
ATOM     60 H60  LIG A   1      20.727  12.983   3.979  1.00 20.00    +0.049 H 
ATOM     61 H61  LIG A   1      19.343  12.713   5.029  1.00 20.00    +0.049 H 
ATOM     62 H62  LIG A   1      19.581  10.837   3.614  1.00 20.00    +0.030 H 
ATOM     63 H63  LIG A   1      19.467  11.863   2.100  1.00 20.00    +0.030 H 
ATOM     64 H64  LIG A   1      17.309  11.291   4.156  1.00 20.00    +0.043 H 
ATOM     65 H65  LIG A   1      17.525  10.534   2.580  1.00 20.00    +0.043 H 
ATOM     66 H66  LIG A   1      16.574  13.274   3.173  1.00 20.00    +0.122 HD
ATOM     67 H67  LIG A   1      16.195  13.699   1.049  1.00 20.00    +0.043 H 
ATOM     68 H68  LIG A   1      17.855  13.133   0.846  1.00 20.00    +0.043 H 
ATOM     69 H69  LIG A   1      17.057  10.875   0.193  1.00 20.00    +0.028 H 
ATOM     70 H70  LIG A   1      16.486  12.226  -0.790  1.00 20.00    +0.028 H 
ATOM     71 H71  LIG A   1      14.711  10.661  -0.408  1.00 20.00    +0.028 H 
ATOM     72 H72  LIG A   1      14.358  12.348   0.199  1.00 20.00    +0.028 H 
ATOM     73 H73  LIG A   1      15.280   9.943   1.901  1.00 20.00    +0.043 H 
ATOM     74 H74  LIG A   1      14.759  11.618   2.525  1.00 20.00    +0.043 H 
ATOM     75 H75  LIG A   1      13.012   9.741   2.471  1.00 20.00    +0.118 HD
ATOM     76 H76  LIG A   1      13.059  10.058   0.759  1.00 20.00    +0.118 HD
ATOM     77 H77  LIG A   1      20.652  14.157   5.729  1.00 20.00    +0.064 H 
ATOM     78 H78  LIG A   1      21.407  15.985   7.077  1.00 20.00    +0.063 H 
ATOM     79 H79  LIG A   1      23.348  20.211  10.196  1.00 20.00    +0.050 H 
ATOM     80 H80  LIG A   1      23.505  18.548   9.716  1.00 20.00    +0.050 H 
ATOM     81 H81  LIG A   1      24.482  18.909   7.869  1.00 20.00    +0.029 H 
ATOM     82 H82  LIG A   1      24.966  20.292   8.853  1.00 20.00    +0.029 H 
ATOM     83 H83  LIG A   1      25.107  20.672   6.662  1.00 20.00    +0.028 H 
ATOM     84 H84  LIG A   1      23.536  20.142   6.246  1.00 20.00    +0.028 H 
ATOM     85 H85  LIG A   1      24.656  22.729   7.290  1.00 20.00    +0.047 H 
ATOM     86 H86  LIG A   1      24.084  22.674   3.600  1.00 20.00    +0.296 HD
ATOM     87 H87  LIG A   1      21.050  19.819  12.168  1.00 20.00    +0.057 H 
ATOM     88 H88  LIG A   1      18.589  20.385  10.817  1.00 20.00    +0.119 HD
ATOM     89 H89  LIG A   1      19.090  19.011  11.701  1.00 20.00    +0.119 HD
ATOM     90 H90  LIG A   1      21.019  19.553   7.957  1.00 20.00    +0.000 H 
ATOM     91 H91  LIG A   1      22.023  18.573   6.856  1.00 20.00    +0.000 H 
ATOM     92 H92  LIG A   1      20.800  17.802   7.995  1.00 20.00    +0.000 H 
ATOM     93 H93  LIG A   1      19.364  19.589   6.413  1.00 20.00    +0.000 H 
ATOM     94 H94  LIG A   1      20.448  18.721   5.206  1.00 20.00    +0.000 H 
ATOM     95 H95  LIG A   1      19.766  14.871   5.689  1.00 20.00    +0.000 H 
ATOM     96 H96  LIG A   1      20.115  16.041   4.347  1.00 20.00    +0.000 H 
ATOM     97 H97  LIG A   1      18.496  15.336   4.515  1.00 20.00    +0.000 H 
ENDROOT
TORSDOF 0
                                                                                                    
ENDMDL
MODEL 3
REMARK VINA RESULT:   -10.321      5.128      8.116
REMARK INTER + INTRA:         -10.321
REMARK INTER:                 -10.321
REMARK INTRA:                   0.000
REMARK UNBOUND:                 0.000
ROOT
ATOM      1 C1   LIG A   1      18.570  13.898   5.074  1.00 20.00    -0.060 C 
ATOM      2 C2   LIG A   1      17.878  15.217   5.290  1.00 20.00    -0.016 C 
ATOM      3 C3   LIG A   1      16.622  15.095   6.193  1.00 20.00    -0.023 C 
ATOM      4 C4   LIG A   1      17.142  14.566   7.508  1.00 20.00    -0.044 A 
ATOM      5 C5   LIG A   1      17.517  13.240   7.424  1.00 20.00    -0.058 A 
ATOM      6 C6   LIG A   1      18.330  12.792   8.432  1.00 20.00    -0.054 A 
ATOM      7 C7   LIG A   1      18.682  13.688   9.406  1.00 20.00    +0.009 A 
ATOM      8 C8   LIG A   1      18.316  15.013   9.535  1.00 20.00    +0.130 A 
ATOM      9 C9   LIG A   1      17.473  15.455   8.481  1.00 20.00    -0.016 A 
ATOM     10 O10  LIG A   1      18.734  15.732  10.550  1.00 20.00    -0.464 OA
ATOM     11 C11  LIG A   1      19.321  16.863  10.836  1.00 20.00    +0.104 C 
ATOM     12 C12  LIG A   1      20.176  17.651  10.201  1.00 20.00    +0.082 C 
ATOM     13 C13  LIG A   1      20.637  18.894  10.868  1.00 20.00    -0.010 A 
ATOM     14 C14  LIG A   1      19.948  19.425  11.940  1.00 20.00    -0.052 A 
ATOM     15 C15  LIG A   1      20.406  20.550  12.633  1.00 20.00    -0.038 A 
ATOM     16 C16  LIG A   1      21.573  21.186  12.274  1.00 20.00    +0.034 A 
ATOM     17 N17  LIG A   1      22.036  22.334  12.989  1.00 20.00    -0.385 NA
ATOM     18 C18  LIG A   1      23.267  22.925  12.552  1.00 20.00    +0.016 C 
ATOM     19 C19  LIG A   1      23.720  24.145  13.259  1.00 20.00    -0.023 C 
ATOM     20 C20  LIG A   1      22.851  25.345  13.197  1.00 20.00    -0.003 C 
ATOM     21 N21  LIG A   1      21.551  25.279  13.721  1.00 20.00    -0.317 NA
ATOM     22 C22  LIG A   1      21.359  25.156  15.108  1.00 20.00    -0.005 C 
ATOM     23 C23  LIG A   1      21.723  26.294  15.982  1.00 20.00    -0.039 C 
ATOM     24 C24  LIG A   1      20.960  27.530  15.727  1.00 20.00    -0.040 C 
ATOM     25 C25  LIG A   1      21.154  28.050  14.337  1.00 20.00    -0.008 C 
ATOM     26 N26  LIG A   1      20.379  29.312  14.229  1.00 20.00    -0.330 NA
ATOM     27 C27  LIG A   1      22.265  20.666  11.209  1.00 20.00    -0.038 A 
ATOM     28 C28  LIG A   1      21.803  19.533  10.514  1.00 20.00    -0.052 A 
ATOM     29 C29  LIG A   1      20.653  17.462   8.840  1.00 20.00    +0.264 C 
ATOM     30 O30  LIG A   1      21.452  18.262   8.232  1.00 20.00    -0.268 OA
ATOM     31 N31  LIG A   1      20.361  16.399   7.888  1.00 20.00    -0.277 NA
ATOM     32 C32  LIG A   1      21.221  15.290   7.809  1.00 20.00    +0.029 C 
ATOM     33 C33  LIG A   1      21.605  14.461   8.920  1.00 20.00    -0.034 C 
ATOM     34 C34  LIG A   1      20.985  14.022  10.135  1.00 20.00    -0.034 C 
ATOM     35 C35  LIG A   1      19.801  13.176  10.286  1.00 20.00    +0.085 C 
ATOM     36 C36  LIG A   1      19.237  13.189  11.662  1.00 20.00    +0.311 C 
ATOM     37 O37  LIG A   1      18.059  13.570  11.917  1.00 20.00    -0.252 OA
ATOM     38 O38  LIG A   1      19.996  12.773  12.751  1.00 20.00    -0.481 OA
ATOM     39 C39  LIG A   1      19.431  16.644   6.840  1.00 20.00    +0.246 C 
ATOM     40 O40  LIG A   1      18.970  17.885   7.158  1.00 20.00    -0.273 OA
ATOM     41 C41  LIG A   1      18.786  16.265   5.670  1.00 20.00    +0.088 C 
ATOM     42 N42  LIG A   1      18.040  17.533   5.222  1.00 20.00    -0.320 NA
ATOM     43 C43  LIG A   1      20.335  17.562   9.593  1.00 20.00    +0.000 C 
ATOM     44 C44  LIG A   1      19.556  18.355  10.617  1.00 20.00    +0.000 C 
ATOM     45 Se45 LIG A   1      19.827  20.259  10.369  1.00 20.00    +0.000 Se
ATOM     46 C46  LIG A   1      21.158  20.983  11.552  1.00 20.00    +0.000 C 
ATOM     47 H47  LIG A   1      19.315  14.150   4.221  1.00 20.00    +0.023 H 
ATOM     48 H48  LIG A   1      19.233  13.542   5.837  1.00 20.00    +0.023 H 
ATOM     49 H49  LIG A   1      17.931  13.157   4.551  1.00 20.00    +0.023 H 
ATOM     50 H50  LIG A   1      17.422  15.439   4.307  1.00 20.00    +0.032 H 
ATOM     51 H51  LIG A   1      16.256  16.089   6.358  1.00 20.00    +0.032 H 
ATOM     52 H52  LIG A   1      15.879  14.413   5.834  1.00 20.00    +0.032 H 
ATOM     53 H53  LIG A   1      17.222  12.558   6.669  1.00 20.00    +0.063 H 
ATOM     54 H54  LIG A   1      18.666  11.750   8.428  1.00 20.00    +0.063 H 
ATOM     55 H55  LIG A   1      17.091  16.459   8.460  1.00 20.00    +0.067 H 
ATOM     56 H56  LIG A   1      19.052  17.279  11.859  1.00 20.00    +0.105 H 
ATOM     57 H57  LIG A   1      19.013  19.037  12.310  1.00 20.00    +0.063 H 
ATOM     58 H58  LIG A   1      19.862  20.954  13.465  1.00 20.00    +0.064 H 
ATOM     59 H59  LIG A   1      21.450  22.647  13.776  1.00 20.00    +0.160 HD
ATOM     60 H60  LIG A   1      24.032  22.094  12.614  1.00 20.00    +0.049 H 
ATOM     61 H61  LIG A   1      23.244  23.161  11.461  1.00 20.00    +0.049 H 
ATOM     62 H62  LIG A   1      24.707  24.452  12.793  1.00 20.00    +0.030 H 
ATOM     63 H63  LIG A   1      23.891  23.924  14.346  1.00 20.00    +0.030 H 
ATOM     64 H64  LIG A   1      22.770  25.663  12.125  1.00 20.00    +0.043 H 
ATOM     65 H65  LIG A   1      23.434  26.184  13.671  1.00 20.00    +0.043 H 
ATOM     66 H66  LIG A   1      20.847  24.840  13.156  1.00 20.00    +0.122 HD
ATOM     67 H67  LIG A   1      20.253  24.975  15.269  1.00 20.00    +0.043 H 
ATOM     68 H68  LIG A   1      21.834  24.242  15.552  1.00 20.00    +0.043 H 
ATOM     69 H69  LIG A   1      22.832  26.463  16.036  1.00 20.00    +0.028 H 
ATOM     70 H70  LIG A   1      21.468  25.976  17.046  1.00 20.00    +0.028 H 
ATOM     71 H71  LIG A   1      21.295  28.296  16.468  1.00 20.00    +0.028 H 
ATOM     72 H72  LIG A   1      19.872  27.287  15.925  1.00 20.00    +0.028 H 
ATOM     73 H73  LIG A   1      22.233  28.223  14.169  1.00 20.00    +0.043 H 
ATOM     74 H74  LIG A   1      20.697  27.337  13.597  1.00 20.00    +0.043 H 
ATOM     75 H75  LIG A   1      20.757  29.897  13.440  1.00 20.00    +0.118 HD
ATOM     76 H76  LIG A   1      20.549  29.779  15.165  1.00 20.00    +0.118 HD
ATOM     77 H77  LIG A   1      23.181  21.162  10.924  1.00 20.00    +0.064 H 
ATOM     78 H78  LIG A   1      22.460  19.221   9.723  1.00 20.00    +0.063 H 
ATOM     79 H79  LIG A   1      20.936  14.596   6.959  1.00 20.00    +0.050 H 
ATOM     80 H80  LIG A   1      22.204  15.715   7.363  1.00 20.00    +0.050 H 
ATOM     81 H81  LIG A   1      22.628  14.930   9.286  1.00 20.00    +0.029 H 
ATOM     82 H82  LIG A   1      22.022  13.525   8.409  1.00 20.00    +0.029 H 
ATOM     83 H83  LIG A   1      21.830  13.337  10.620  1.00 20.00    +0.028 H 
ATOM     84 H84  LIG A   1      21.070  14.842  10.904  1.00 20.00    +0.028 H 
ATOM     85 H85  LIG A   1      20.078  12.130  10.069  1.00 20.00    +0.047 H 
ATOM     86 H86  LIG A   1      19.662  12.872  13.705  1.00 20.00    +0.296 HD
ATOM     87 H87  LIG A   1      19.589  16.311   4.821  1.00 20.00    +0.057 H 
ATOM     88 H88  LIG A   1      17.417  17.730   6.032  1.00 20.00    +0.119 HD
ATOM     89 H89  LIG A   1      18.745  18.290   5.115  1.00 20.00    +0.119 HD
ATOM     90 H90  LIG A   1      19.702  16.871   9.002  1.00 20.00    +0.000 H 
ATOM     91 H91  LIG A   1      21.092  16.963  10.116  1.00 20.00    +0.000 H 
ATOM     92 H92  LIG A   1      20.768  18.271   8.860  1.00 20.00    +0.000 H 
ATOM     93 H93  LIG A   1      18.473  18.124  10.432  1.00 20.00    +0.000 H 
ATOM     94 H94  LIG A   1      19.841  18.089  11.663  1.00 20.00    +0.000 H 
ATOM     95 H95  LIG A   1      22.047  21.272  10.941  1.00 20.00    +0.000 H 
ATOM     96 H96  LIG A   1      21.464  20.305  12.361  1.00 20.00    +0.000 H 
ATOM     97 H97  LIG A   1      20.800  21.920  12.050  1.00 20.00    +0.000 H 
ENDROOT
TORSDOF 0
                                                                                                    
ENDMDL
MODEL 4
REMARK VINA RESULT:   -10.270      2.112      4.366
REMARK INTER + INTRA:         -10.270
REMARK INTER:                 -10.270
REMARK INTRA:                   0.000
REMARK UNBOUND:                 0.000
ROOT
ATOM      1 C1   LIG A   1      23.070  19.907   9.360  1.00 20.00    -0.060 C 
ATOM      2 C2   LIG A   1      22.599  19.661  10.768  1.00 20.00    -0.016 C 
ATOM      3 C3   LIG A   1      23.724  19.849  11.819  1.00 20.00    -0.023 C 
ATOM      4 C4   LIG A   1      24.158  21.287  11.666  1.00 20.00    -0.044 A 
ATOM      5 C5   LIG A   1      24.868  21.496  10.502  1.00 20.00    -0.058 A 
ATOM      6 C6   LIG A   1      24.974  22.802  10.100  1.00 20.00    -0.054 A 
ATOM      7 C7   LIG A   1      24.376  23.754  10.882  1.00 20.00    +0.009 A 
ATOM      8 C8   LIG A   1      23.673  23.589  12.059  1.00 20.00    +0.130 A 
ATOM      9 C9   LIG A   1      23.577  22.228  12.456  1.00 20.00    -0.016 A 
ATOM     10 O10  LIG A   1      23.174  24.622  12.697  1.00 20.00    -0.464 OA
ATOM     11 C11  LIG A   1      22.064  25.069  13.219  1.00 20.00    +0.104 C 
ATOM     12 C12  LIG A   1      20.777  24.870  12.975  1.00 20.00    +0.082 C 
ATOM     13 C13  LIG A   1      19.771  25.580  13.802  1.00 20.00    -0.010 A 
ATOM     14 C14  LIG A   1      20.116  26.141  15.016  1.00 20.00    -0.052 A 
ATOM     15 C15  LIG A   1      19.204  26.882  15.776  1.00 20.00    -0.038 A 
ATOM     16 C16  LIG A   1      17.913  27.086  15.347  1.00 20.00    +0.034 A 
ATOM     17 N17  LIG A   1      16.988  27.846  16.129  1.00 20.00    -0.385 NA
ATOM     18 C18  LIG A   1      15.667  28.016  15.598  1.00 20.00    +0.016 C 
ATOM     19 C19  LIG A   1      14.694  28.760  16.431  1.00 20.00    -0.023 C 
ATOM     20 C20  LIG A   1      14.341  28.195  17.756  1.00 20.00    -0.003 C 
ATOM     21 N21  LIG A   1      15.347  28.027  18.719  1.00 20.00    -0.317 NA
ATOM     22 C22  LIG A   1      15.948  29.152  19.310  1.00 20.00    -0.005 C 
ATOM     23 C23  LIG A   1      15.137  30.005  20.210  1.00 20.00    -0.039 C 
ATOM     24 C24  LIG A   1      14.638  29.318  21.416  1.00 20.00    -0.040 C 
ATOM     25 C25  LIG A   1      13.745  28.162  21.093  1.00 20.00    -0.008 C 
ATOM     26 N26  LIG A   1      13.276  27.598  22.384  1.00 20.00    -0.330 NA
ATOM     27 C27  LIG A   1      17.561  26.531  14.142  1.00 20.00    -0.038 A 
ATOM     28 C28  LIG A   1      18.479  25.788  13.378  1.00 20.00    -0.052 A 
ATOM     29 C29  LIG A   1      20.234  23.929  12.007  1.00 20.00    +0.264 C 
ATOM     30 O30  LIG A   1      18.981  23.725  11.816  1.00 20.00    -0.268 OA
ATOM     31 N31  LIG A   1      20.923  23.038  11.084  1.00 20.00    -0.277 NA
ATOM     32 C32  LIG A   1      21.175  23.469   9.770  1.00 20.00    +0.029 C 
ATOM     33 C33  LIG A   1      21.854  24.686   9.416  1.00 20.00    -0.034 C 
ATOM     34 C34  LIG A   1      22.904  25.479   9.985  1.00 20.00    -0.034 C 
ATOM     35 C35  LIG A   1      24.301  25.101  10.199  1.00 20.00    +0.085 C 
ATOM     36 C36  LIG A   1      25.032  26.027  11.106  1.00 20.00    +0.311 C 
ATOM     37 O37  LIG A   1      25.558  25.650  12.191  1.00 20.00    -0.252 OA
ATOM     38 O38  LIG A   1      25.170  27.375  10.793  1.00 20.00    -0.481 OA
ATOM     39 C39  LIG A   1      21.027  21.656  11.403  1.00 20.00    +0.246 C 
ATOM     40 O40  LIG A   1      20.498  21.616  12.657  1.00 20.00    -0.273 OA
ATOM     41 C41  LIG A   1      21.376  20.351  11.073  1.00 20.00    +0.088 C 
ATOM     42 N42  LIG A   1      20.787  19.504  12.214  1.00 20.00    -0.320 NA
ATOM     43 C43  LIG A   1      20.572  24.423  12.573  1.00 20.00    +0.000 C 
ATOM     44 C44  LIG A   1      20.767  24.879  14.000  1.00 20.00    +0.000 C 
ATOM     45 Se45 LIG A   1      19.138  24.650  15.028  1.00 20.00    +0.000 Se
ATOM     46 C46  LIG A   1      18.115  26.270  15.175  1.00 20.00    +0.000 C 
ATOM     47 H47  LIG A   1      22.181  19.505   8.731  1.00 20.00    +0.023 H 
ATOM     48 H48  LIG A   1      23.132  20.920   9.016  1.00 20.00    +0.023 H 
ATOM     49 H49  LIG A   1      23.860  19.198   9.039  1.00 20.00    +0.023 H 
ATOM     50 H50  LIG A   1      22.443  18.566  10.805  1.00 20.00    +0.032 H 
ATOM     51 H51  LIG A   1      23.273  19.741  12.785  1.00 20.00    +0.032 H 
ATOM     52 H52  LIG A   1      24.583  19.228  11.669  1.00 20.00    +0.032 H 
ATOM     53 H53  LIG A   1      25.337  20.746   9.917  1.00 20.00    +0.063 H 
ATOM     54 H54  LIG A   1      25.524  23.040   9.184  1.00 20.00    +0.063 H 
ATOM     55 H55  LIG A   1      23.076  21.949  13.364  1.00 20.00    +0.067 H 
ATOM     56 H56  LIG A   1      22.217  25.800  14.077  1.00 20.00    +0.105 H 
ATOM     57 H57  LIG A   1      21.085  26.041  15.475  1.00 20.00    +0.063 H 
ATOM     58 H58  LIG A   1      19.483  27.314  16.718  1.00 20.00    +0.064 H 
ATOM     59 H59  LIG A   1      17.346  28.225  17.017  1.00 20.00    +0.160 HD
ATOM     60 H60  LIG A   1      15.815  28.504  14.587  1.00 20.00    +0.049 H 
ATOM     61 H61  LIG A   1      15.201  27.037  15.336  1.00 20.00    +0.049 H 
ATOM     62 H62  LIG A   1      13.724  28.808  15.846  1.00 20.00    +0.030 H 
ATOM     63 H63  LIG A   1      15.056  29.806  16.611  1.00 20.00    +0.030 H 
ATOM     64 H64  LIG A   1      13.857  27.196  17.592  1.00 20.00    +0.043 H 
ATOM     65 H65  LIG A   1      13.500  28.826  18.157  1.00 20.00    +0.043 H 
ATOM     66 H66  LIG A   1      15.946  27.226  18.628  1.00 20.00    +0.122 HD
ATOM     67 H67  LIG A   1      16.813  28.771  19.931  1.00 20.00    +0.043 H 
ATOM     68 H68  LIG A   1      16.445  29.839  18.575  1.00 20.00    +0.043 H 
ATOM     69 H69  LIG A   1      14.339  30.576  19.663  1.00 20.00    +0.028 H 
ATOM     70 H70  LIG A   1      15.829  30.833  20.577  1.00 20.00    +0.028 H 
ATOM     71 H71  LIG A   1      14.079  30.070  22.027  1.00 20.00    +0.028 H 
ATOM     72 H72  LIG A   1      15.549  28.984  22.000  1.00 20.00    +0.028 H 
ATOM     73 H73  LIG A   1      12.900  28.524  20.480  1.00 20.00    +0.043 H 
ATOM     74 H74  LIG A   1      14.341  27.350  20.594  1.00 20.00    +0.043 H 
ATOM     75 H75  LIG A   1      12.391  27.048  22.233  1.00 20.00    +0.118 HD
ATOM     76 H76  LIG A   1      13.094  28.460  22.971  1.00 20.00    +0.118 HD
ATOM     77 H77  LIG A   1      16.548  26.688  13.801  1.00 20.00    +0.064 H 
ATOM     78 H78  LIG A   1      18.074  25.440  12.445  1.00 20.00    +0.063 H 
ATOM     79 H79  LIG A   1      21.618  22.642   9.133  1.00 20.00    +0.050 H 
ATOM     80 H80  LIG A   1      20.127  23.524   9.275  1.00 20.00    +0.050 H 
ATOM     81 H81  LIG A   1      20.979  25.465   9.252  1.00 20.00    +0.029 H 
ATOM     82 H82  LIG A   1      22.134  24.513   8.318  1.00 20.00    +0.029 H 
ATOM     83 H83  LIG A   1      23.015  26.362   9.194  1.00 20.00    +0.028 H 
ATOM     84 H84  LIG A   1      22.469  26.128  10.797  1.00 20.00    +0.028 H 
ATOM     85 H85  LIG A   1      24.831  25.125   9.231  1.00 20.00    +0.047 H 
ATOM     86 H86  LIG A   1      25.575  28.038  11.447  1.00 20.00    +0.296 HD
ATOM     87 H87  LIG A   1      20.602  19.997  10.271  1.00 20.00    +0.057 H 
ATOM     88 H88  LIG A   1      21.260  19.894  13.055  1.00 20.00    +0.119 HD
ATOM     89 H89  LIG A   1      19.766  19.695  12.252  1.00 20.00    +0.119 HD
ATOM     90 H90  LIG A   1      21.304  23.654  12.256  1.00 20.00    +0.000 H 
ATOM     91 H91  LIG A   1      20.685  25.291  11.910  1.00 20.00    +0.000 H 
ATOM     92 H92  LIG A   1      19.578  23.941  12.494  1.00 20.00    +0.000 H 
ATOM     93 H93  LIG A   1      21.557  24.212  14.435  1.00 20.00    +0.000 H 
ATOM     94 H94  LIG A   1      21.079  25.949  14.063  1.00 20.00    +0.000 H 
ATOM     95 H95  LIG A   1      17.178  26.146  14.580  1.00 20.00    +0.000 H 
ATOM     96 H96  LIG A   1      18.648  27.176  14.851  1.00 20.00    +0.000 H 
ATOM     97 H97  LIG A   1      17.795  26.461  16.231  1.00 20.00    +0.000 H 
ENDROOT
TORSDOF 0
                                                                                                    
ENDMDL
MODEL 5
REMARK VINA RESULT:   -10.253      4.823     10.689
REMARK INTER + INTRA:         -10.253
REMARK INTER:                 -10.253
REMARK INTRA:                   0.000
REMARK UNBOUND:                 0.000
ROOT
ATOM      1 C1   LIG A   1      21.558  26.078  15.677  1.00 20.00    -0.060 C 
ATOM      2 C2   LIG A   1      20.303  25.923  14.860  1.00 20.00    -0.016 C 
ATOM      3 C3   LIG A   1      20.301  26.813  13.589  1.00 20.00    -0.023 C 
ATOM      4 C4   LIG A   1      21.494  26.349  12.790  1.00 20.00    -0.044 A 
ATOM      5 C5   LIG A   1      22.687  26.738  13.363  1.00 20.00    -0.058 A 
ATOM      6 C6   LIG A   1      23.798  26.061  12.932  1.00 20.00    -0.054 A 
ATOM      7 C7   LIG A   1      23.616  25.083  11.989  1.00 20.00    +0.009 A 
ATOM      8 C8   LIG A   1      22.445  24.676  11.381  1.00 20.00    +0.130 A 
ATOM      9 C9   LIG A   1      21.309  25.392  11.842  1.00 20.00    -0.016 A 
ATOM     10 O10  LIG A   1      22.451  23.725  10.476  1.00 20.00    -0.464 OA
ATOM     11 C11  LIG A   1      21.875  22.594  10.171  1.00 20.00    +0.104 C 
ATOM     12 C12  LIG A   1      21.292  21.631  10.869  1.00 20.00    +0.082 C 
ATOM     13 C13  LIG A   1      20.737  20.458  10.151  1.00 20.00    -0.010 A 
ATOM     14 C14  LIG A   1      20.493  20.506   8.792  1.00 20.00    -0.052 A 
ATOM     15 C15  LIG A   1      20.044  19.388   8.080  1.00 20.00    -0.038 A 
ATOM     16 C16  LIG A   1      19.824  18.182   8.704  1.00 20.00    +0.034 A 
ATOM     17 N17  LIG A   1      19.368  17.044   7.968  1.00 20.00    -0.385 NA
ATOM     18 C18  LIG A   1      19.176  15.825   8.700  1.00 20.00    +0.016 C 
ATOM     19 C19  LIG A   1      18.655  14.661   7.948  1.00 20.00    -0.023 C 
ATOM     20 C20  LIG A   1      17.310  14.778   7.333  1.00 20.00    -0.003 C 
ATOM     21 N21  LIG A   1      17.084  15.764   6.362  1.00 20.00    -0.317 NA
ATOM     22 C22  LIG A   1      17.700  15.662   5.102  1.00 20.00    -0.005 C 
ATOM     23 C23  LIG A   1      17.281  14.574   4.188  1.00 20.00    -0.039 C 
ATOM     24 C24  LIG A   1      15.866  14.631   3.777  1.00 20.00    -0.040 C 
ATOM     25 C25  LIG A   1      14.925  14.528   4.937  1.00 20.00    -0.008 C 
ATOM     26 N26  LIG A   1      13.547  14.546   4.384  1.00 20.00    -0.330 NA
ATOM     27 C27  LIG A   1      20.064  18.125  10.054  1.00 20.00    -0.038 A 
ATOM     28 C28  LIG A   1      20.516  19.249  10.769  1.00 20.00    -0.052 A 
ATOM     29 C29  LIG A   1      21.052  21.651  12.304  1.00 20.00    +0.264 C 
ATOM     30 O30  LIG A   1      20.449  20.722  12.953  1.00 20.00    -0.268 OA
ATOM     31 N31  LIG A   1      21.404  22.660  13.295  1.00 20.00    -0.277 NA
ATOM     32 C32  LIG A   1      22.610  22.536  14.005  1.00 20.00    +0.029 C 
ATOM     33 C33  LIG A   1      23.909  22.385  13.407  1.00 20.00    -0.034 C 
ATOM     34 C34  LIG A   1      24.545  22.839  12.206  1.00 20.00    -0.034 C 
ATOM     35 C35  LIG A   1      24.843  24.216  11.811  1.00 20.00    +0.085 C 
ATOM     36 C36  LIG A   1      25.199  24.355  10.373  1.00 20.00    +0.311 C 
ATOM     37 O37  LIG A   1      24.539  25.073   9.570  1.00 20.00    -0.252 OA
ATOM     38 O38  LIG A   1      26.296  23.687   9.840  1.00 20.00    -0.481 OA
ATOM     39 C39  LIG A   1      20.397  23.547  13.767  1.00 20.00    +0.246 C 
ATOM     40 O40  LIG A   1      19.339  23.217  12.976  1.00 20.00    -0.273 OA
ATOM     41 C41  LIG A   1      19.959  24.547  14.626  1.00 20.00    +0.088 C 
ATOM     42 N42  LIG A   1      18.442  24.617  14.382  1.00 20.00    -0.320 NA
ATOM     43 C43  LIG A   1      21.167  21.688  11.490  1.00 20.00    +0.000 C 
ATOM     44 C44  LIG A   1      20.653  21.687  10.069  1.00 20.00    +0.000 C 
ATOM     45 Se45 LIG A   1      19.095  20.544   9.898  1.00 20.00    +0.000 Se
ATOM     46 C46  LIG A   1      19.522  18.797   9.220  1.00 20.00    +0.000 C 
ATOM     47 H47  LIG A   1      21.278  25.532  16.661  1.00 20.00    +0.023 H 
ATOM     48 H48  LIG A   1      22.431  25.535  15.373  1.00 20.00    +0.023 H 
ATOM     49 H49  LIG A   1      21.694  27.107  16.067  1.00 20.00    +0.023 H 
ATOM     50 H50  LIG A   1      19.527  26.415  15.476  1.00 20.00    +0.032 H 
ATOM     51 H51  LIG A   1      19.416  26.568  13.036  1.00 20.00    +0.032 H 
ATOM     52 H52  LIG A   1      20.417  27.860  13.778  1.00 20.00    +0.032 H 
ATOM     53 H53  LIG A   1      22.810  27.507  14.081  1.00 20.00    +0.063 H 
ATOM     54 H54  LIG A   1      24.778  26.318  13.344  1.00 20.00    +0.063 H 
ATOM     55 H55  LIG A   1      20.331  25.198  11.443  1.00 20.00    +0.067 H 
ATOM     56 H56  LIG A   1      21.866  22.365   9.057  1.00 20.00    +0.105 H 
ATOM     57 H57  LIG A   1      20.605  21.391   8.188  1.00 20.00    +0.063 H 
ATOM     58 H58  LIG A   1      19.857  19.437   7.024  1.00 20.00    +0.064 H 
ATOM     59 H59  LIG A   1      19.220  17.184   6.959  1.00 20.00    +0.160 HD
ATOM     60 H60  LIG A   1      20.179  15.605   9.175  1.00 20.00    +0.049 H 
ATOM     61 H61  LIG A   1      18.510  15.977   9.582  1.00 20.00    +0.049 H 
ATOM     62 H62  LIG A   1      18.588  13.797   8.678  1.00 20.00    +0.030 H 
ATOM     63 H63  LIG A   1      19.363  14.380   7.125  1.00 20.00    +0.030 H 
ATOM     64 H64  LIG A   1      16.563  14.932   8.155  1.00 20.00    +0.043 H 
ATOM     65 H65  LIG A   1      17.051  13.756   6.938  1.00 20.00    +0.043 H 
ATOM     66 H66  LIG A   1      16.929  16.703   6.682  1.00 20.00    +0.122 HD
ATOM     67 H67  LIG A   1      17.487  16.631   4.557  1.00 20.00    +0.043 H 
ATOM     68 H68  LIG A   1      18.820  15.635   5.146  1.00 20.00    +0.043 H 
ATOM     69 H69  LIG A   1      17.596  13.559   4.551  1.00 20.00    +0.028 H 
ATOM     70 H70  LIG A   1      17.895  14.701   3.237  1.00 20.00    +0.028 H 
ATOM     71 H71  LIG A   1      15.685  13.788   3.066  1.00 20.00    +0.028 H 
ATOM     72 H72  LIG A   1      15.728  15.608   3.223  1.00 20.00    +0.028 H 
ATOM     73 H73  LIG A   1      15.130  13.587   5.479  1.00 20.00    +0.043 H 
ATOM     74 H74  LIG A   1      15.017  15.443   5.583  1.00 20.00    +0.043 H 
ATOM     75 H75  LIG A   1      12.879  14.118   5.076  1.00 20.00    +0.118 HD
ATOM     76 H76  LIG A   1      13.629  13.949   3.513  1.00 20.00    +0.118 HD
ATOM     77 H77  LIG A   1      19.892  17.180  10.548  1.00 20.00    +0.064 H 
ATOM     78 H78  LIG A   1      20.689  19.050  11.811  1.00 20.00    +0.063 H 
ATOM     79 H79  LIG A   1      22.705  23.325  14.814  1.00 20.00    +0.050 H 
ATOM     80 H80  LIG A   1      22.454  21.610  14.686  1.00 20.00    +0.050 H 
ATOM     81 H81  LIG A   1      24.078  21.214  13.382  1.00 20.00    +0.029 H 
ATOM     82 H82  LIG A   1      24.619  22.640  14.269  1.00 20.00    +0.029 H 
ATOM     83 H83  LIG A   1      25.639  22.379  12.306  1.00 20.00    +0.028 H 
ATOM     84 H84  LIG A   1      24.235  22.169  11.354  1.00 20.00    +0.028 H 
ATOM     85 H85  LIG A   1      25.713  24.574  12.387  1.00 20.00    +0.047 H 
ATOM     86 H86  LIG A   1      26.492  23.690   8.844  1.00 20.00    +0.296 HD
ATOM     87 H87  LIG A   1      19.872  24.057  15.685  1.00 20.00    +0.057 H 
ATOM     88 H88  LIG A   1      18.385  24.842  13.367  1.00 20.00    +0.119 HD
ATOM     89 H89  LIG A   1      18.051  23.672  14.566  1.00 20.00    +0.119 HD
ATOM     90 H90  LIG A   1      21.236  22.703  11.928  1.00 20.00    +0.000 H 
ATOM     91 H91  LIG A   1      22.173  21.247  11.498  1.00 20.00    +0.000 H 
ATOM     92 H92  LIG A   1      20.444  21.137  12.122  1.00 20.00    +0.000 H 
ATOM     93 H93  LIG A   1      20.344  22.742   9.848  1.00 20.00    +0.000 H 
ATOM     94 H94  LIG A   1      21.426  21.344   9.340  1.00 20.00    +0.000 H 
ATOM     95 H95  LIG A   1      19.370  18.056  10.042  1.00 20.00    +0.000 H 
ATOM     96 H96  LIG A   1      20.539  18.703   8.813  1.00 20.00    +0.000 H 
ATOM     97 H97  LIG A   1      18.829  18.496   8.392  1.00 20.00    +0.000 H 
ENDROOT
TORSDOF 0
                                                                                                    
ENDMDL
MODEL 6
REMARK VINA RESULT:   -10.160      3.304     10.423
REMARK INTER + INTRA:         -10.160
REMARK INTER:                 -10.160
REMARK INTRA:                   0.000
REMARK UNBOUND:                 0.000
ROOT
ATOM      1 C1   LIG A   1      18.290  30.023  17.784  1.00 20.00    -0.060 C 
ATOM      2 C2   LIG A   1      17.333  29.427  16.786  1.00 20.00    -0.016 C 
ATOM      3 C3   LIG A   1      17.225  30.264  15.485  1.00 20.00    -0.023 C 
ATOM      4 C4   LIG A   1      18.622  30.274  14.914  1.00 20.00    -0.044 A 
ATOM      5 C5   LIG A   1      19.479  31.067  15.648  1.00 20.00    -0.058 A 
ATOM      6 C6   LIG A   1      20.815  30.846  15.438  1.00 20.00    -0.054 A 
ATOM      7 C7   LIG A   1      21.161  29.877  14.534  1.00 20.00    +0.009 A 
ATOM      8 C8   LIG A   1      20.337  29.075  13.769  1.00 20.00    +0.130 A 
ATOM      9 C9   LIG A   1      18.958  29.323  14.002  1.00 20.00    -0.016 A 
ATOM     10 O10  LIG A   1      20.838  28.199  12.930  1.00 20.00    -0.464 OA
ATOM     11 C11  LIG A   1      20.770  26.938  12.598  1.00 20.00    +0.104 C 
ATOM     12 C12  LIG A   1      20.465  25.823  13.245  1.00 20.00    +0.082 C 
ATOM     13 C13  LIG A   1      20.502  24.534  12.512  1.00 20.00    -0.010 A 
ATOM     14 C14  LIG A   1      20.489  24.500  11.132  1.00 20.00    -0.052 A 
ATOM     15 C15  LIG A   1      20.602  23.302  10.419  1.00 20.00    -0.038 A 
ATOM     16 C16  LIG A   1      20.730  22.094  11.064  1.00 20.00    +0.034 A 
ATOM     17 N17  LIG A   1      20.847  20.874  10.328  1.00 20.00    -0.385 NA
ATOM     18 C18  LIG A   1      20.987  19.663  11.084  1.00 20.00    +0.016 C 
ATOM     19 C19  LIG A   1      21.058  18.395  10.323  1.00 20.00    -0.023 C 
ATOM     20 C20  LIG A   1      19.886  18.017   9.495  1.00 20.00    -0.003 C 
ATOM     21 N21  LIG A   1      19.486  18.861   8.448  1.00 20.00    -0.317 NA
ATOM     22 C22  LIG A   1      20.301  19.001   7.310  1.00 20.00    -0.005 C 
ATOM     23 C23  LIG A   1      20.465  17.843   6.403  1.00 20.00    -0.039 C 
ATOM     24 C24  LIG A   1      19.216  17.382   5.767  1.00 20.00    -0.040 C 
ATOM     25 C25  LIG A   1      18.194  16.933   6.765  1.00 20.00    -0.008 C 
ATOM     26 N26  LIG A   1      17.017  16.452   5.999  1.00 20.00    -0.330 NA
ATOM     27 C27  LIG A   1      20.743  22.118  12.436  1.00 20.00    -0.038 A 
ATOM     28 C28  LIG A   1      20.630  23.323  13.152  1.00 20.00    -0.052 A 
ATOM     29 C29  LIG A   1      19.995  25.743  14.620  1.00 20.00    +0.264 C 
ATOM     30 O30  LIG A   1      19.667  24.653  15.213  1.00 20.00    -0.268 OA
ATOM     31 N31  LIG A   1      19.786  26.803  15.597  1.00 20.00    -0.277 NA
ATOM     32 C32  LIG A   1      20.817  27.122  16.497  1.00 20.00    +0.029 C 
ATOM     33 C33  LIG A   1      22.164  27.460  16.125  1.00 20.00    -0.034 C 
ATOM     34 C34  LIG A   1      22.787  28.125  15.018  1.00 20.00    -0.034 C 
ATOM     35 C35  LIG A   1      22.629  29.519  14.602  1.00 20.00    +0.085 C 
ATOM     36 C36  LIG A   1      23.148  29.790  13.234  1.00 20.00    +0.311 C 
ATOM     37 O37  LIG A   1      22.420  30.223  12.298  1.00 20.00    -0.252 OA
ATOM     38 O38  LIG A   1      24.486  29.572  12.921  1.00 20.00    -0.481 OA
ATOM     39 C39  LIG A   1      18.463  27.257  15.853  1.00 20.00    +0.246 C 
ATOM     40 O40  LIG A   1      17.745  26.571  14.922  1.00 20.00    -0.273 OA
ATOM     41 C41  LIG A   1      17.555  28.022  16.576  1.00 20.00    +0.088 C 
ATOM     42 N42  LIG A   1      16.179  27.536  16.087  1.00 20.00    -0.320 NA
ATOM     43 C43  LIG A   1      20.225  25.826  13.834  1.00 20.00    +0.000 C 
ATOM     44 C44  LIG A   1      19.994  25.648  12.351  1.00 20.00    +0.000 C 
ATOM     45 Se45 LIG A   1      19.007  24.017  11.995  1.00 20.00    +0.000 Se
ATOM     46 C46  LIG A   1      20.144  22.552  11.490  1.00 20.00    +0.000 C 
ATOM     47 H47  LIG A   1      18.064  29.404  18.739  1.00 20.00    +0.023 H 
ATOM     48 H48  LIG A   1      19.338  29.838  17.654  1.00 20.00    +0.023 H 
ATOM     49 H49  LIG A   1      17.978  31.027  18.134  1.00 20.00    +0.023 H 
ATOM     50 H50  LIG A   1      16.340  29.596  17.242  1.00 20.00    +0.032 H 
ATOM     51 H51  LIG A   1      16.596  29.717  14.811  1.00 20.00    +0.032 H 
ATOM     52 H52  LIG A   1      16.922  31.280  15.632  1.00 20.00    +0.032 H 
ATOM     53 H53  LIG A   1      19.192  31.822  16.334  1.00 20.00    +0.063 H 
ATOM     54 H54  LIG A   1      21.552  31.440  15.988  1.00 20.00    +0.063 H 
ATOM     55 H55  LIG A   1      18.199  28.788  13.462  1.00 20.00    +0.067 H 
ATOM     56 H56  LIG A   1      21.033  26.731  11.511  1.00 20.00    +0.105 H 
ATOM     57 H57  LIG A   1      20.375  25.370  10.506  1.00 20.00    +0.063 H 
ATOM     58 H58  LIG A   1      20.592  23.287   9.345  1.00 20.00    +0.064 H 
ATOM     59 H59  LIG A   1      20.832  20.958   9.302  1.00 20.00    +0.160 HD
ATOM     60 H60  LIG A   1      21.907  19.820  11.726  1.00 20.00    +0.049 H 
ATOM     61 H61  LIG A   1      20.173  19.555  11.839  1.00 20.00    +0.049 H 
ATOM     62 H62  LIG A   1      21.184  17.560  11.080  1.00 20.00    +0.030 H 
ATOM     63 H63  LIG A   1      21.948  18.398   9.641  1.00 20.00    +0.030 H 
ATOM     64 H64  LIG A   1      19.006  17.882  10.177  1.00 20.00    +0.043 H 
ATOM     65 H65  LIG A   1      20.084  16.975   9.121  1.00 20.00    +0.043 H 
ATOM     66 H66  LIG A   1      18.952  19.676   8.688  1.00 20.00    +0.122 HD
ATOM     67 H67  LIG A   1      19.848  19.830   6.686  1.00 20.00    +0.043 H 
ATOM     68 H68  LIG A   1      21.331  19.384   7.535  1.00 20.00    +0.043 H 
ATOM     69 H69  LIG A   1      21.059  17.009   6.866  1.00 20.00    +0.028 H 
ATOM     70 H70  LIG A   1      21.143  18.192   5.556  1.00 20.00    +0.028 H 
ATOM     71 H71  LIG A   1      19.475  16.537   5.083  1.00 20.00    +0.028 H 
ATOM     72 H72  LIG A   1      18.830  18.246   5.145  1.00 20.00    +0.028 H 
ATOM     73 H73  LIG A   1      18.630  16.128   7.384  1.00 20.00    +0.043 H 
ATOM     74 H74  LIG A   1      17.838  17.814   7.366  1.00 20.00    +0.043 H 
ATOM     75 H75  LIG A   1      16.442  15.804   6.597  1.00 20.00    +0.118 HD
ATOM     76 H76  LIG A   1      17.455  15.932   5.186  1.00 20.00    +0.118 HD
ATOM     77 H77  LIG A   1      20.842  21.171  12.947  1.00 20.00    +0.064 H 
ATOM     78 H78  LIG A   1      20.685  23.193  14.217  1.00 20.00    +0.063 H 
ATOM     79 H79  LIG A   1      20.482  27.885  17.267  1.00 20.00    +0.050 H 
ATOM     80 H80  LIG A   1      20.893  26.198  17.194  1.00 20.00    +0.050 H 
ATOM     81 H81  LIG A   1      22.746  26.432  16.192  1.00 20.00    +0.029 H 
ATOM     82 H82  LIG A   1      22.577  27.950  17.074  1.00 20.00    +0.029 H 
ATOM     83 H83  LIG A   1      23.939  28.096  15.318  1.00 20.00    +0.028 H 
ATOM     84 H84  LIG A   1      22.888  27.395  14.166  1.00 20.00    +0.028 H 
ATOM     85 H85  LIG A   1      23.200  30.165  15.290  1.00 20.00    +0.047 H 
ATOM     86 H86  LIG A   1      24.833  29.655  11.970  1.00 20.00    +0.296 HD
ATOM     87 H87  LIG A   1      17.472  27.525  17.631  1.00 20.00    +0.057 H 
ATOM     88 H88  LIG A   1      16.217  27.732  15.066  1.00 20.00    +0.119 HD
ATOM     89 H89  LIG A   1      16.131  26.511  16.258  1.00 20.00    +0.119 HD
ATOM     90 H90  LIG A   1      19.847  26.793  14.221  1.00 20.00    +0.000 H 
ATOM     91 H91  LIG A   1      21.305  25.783  14.027  1.00 20.00    +0.000 H 
ATOM     92 H92  LIG A   1      19.654  25.044  14.371  1.00 20.00    +0.000 H 
ATOM     93 H93  LIG A   1      19.367  26.520  12.026  1.00 20.00    +0.000 H 
ATOM     94 H94  LIG A   1      20.950  25.617  11.775  1.00 20.00    +0.000 H 
ATOM     95 H95  LIG A   1      20.133  21.800  12.316  1.00 20.00    +0.000 H 
ATOM     96 H96  LIG A   1      21.179  22.839  11.258  1.00 20.00    +0.000 H 
ATOM     97 H97  LIG A   1      19.757  22.025  10.580  1.00 20.00    +0.000 H 
ENDROOT
TORSDOF 0
                                                                                                    
ENDMDL
MODEL 7
REMARK VINA RESULT:   -10.131     11.002     16.315
REMARK INTER + INTRA:         -10.131
REMARK INTER:                 -10.131
REMARK INTRA:                   0.000
REMARK UNBOUND:                 0.000
ROOT
ATOM      1 C1   LIG A   1      20.315  14.282  11.290  1.00 20.00    -0.060 C 
ATOM      2 C2   LIG A   1      18.816  14.166  11.214  1.00 20.00    -0.016 C 
ATOM      3 C3   LIG A   1      18.103  15.542  11.277  1.00 20.00    -0.023 C 
ATOM      4 C4   LIG A   1      18.620  16.300  10.079  1.00 20.00    -0.044 A 
ATOM      5 C5   LIG A   1      19.933  16.694  10.239  1.00 20.00    -0.058 A 
ATOM      6 C6   LIG A   1      20.589  17.045   9.088  1.00 20.00    -0.054 A 
ATOM      7 C7   LIG A   1      19.887  16.974   7.914  1.00 20.00    +0.009 A 
ATOM      8 C8   LIG A   1      18.573  16.603   7.714  1.00 20.00    +0.130 A 
ATOM      9 C9   LIG A   1      17.913  16.244   8.919  1.00 20.00    -0.016 A 
ATOM     10 O10  LIG A   1      18.046  16.606   6.511  1.00 20.00    -0.464 OA
ATOM     11 C11  LIG A   1      17.382  15.852   5.678  1.00 20.00    +0.104 C 
ATOM     12 C12  LIG A   1      17.286  14.545   5.483  1.00 20.00    +0.082 C 
ATOM     13 C13  LIG A   1      16.403  14.043   4.402  1.00 20.00    -0.010 A 
ATOM     14 C14  LIG A   1      15.428  14.850   3.848  1.00 20.00    -0.052 A 
ATOM     15 C15  LIG A   1      14.637  14.425   2.775  1.00 20.00    -0.038 A 
ATOM     16 C16  LIG A   1      14.793  13.176   2.220  1.00 20.00    +0.034 A 
ATOM     17 N17  LIG A   1      13.981  12.751   1.122  1.00 20.00    -0.385 NA
ATOM     18 C18  LIG A   1      14.221  11.436   0.601  1.00 20.00    +0.016 C 
ATOM     19 C19  LIG A   1      13.347  10.977  -0.503  1.00 20.00    -0.023 C 
ATOM     20 C20  LIG A   1      11.894  10.857  -0.231  1.00 20.00    -0.003 C 
ATOM     21 N21  LIG A   1      11.169  11.999   0.140  1.00 20.00    -0.317 NA
ATOM     22 C22  LIG A   1      10.955  13.028  -0.795  1.00 20.00    -0.005 C 
ATOM     23 C23  LIG A   1      10.074  12.766  -1.956  1.00 20.00    -0.039 C 
ATOM     24 C24  LIG A   1       8.678  12.445  -1.604  1.00 20.00    -0.040 C 
ATOM     25 C25  LIG A   1       8.564  11.212  -0.763  1.00 20.00    -0.008 C 
ATOM     26 N26  LIG A   1       7.118  10.976  -0.526  1.00 20.00    -0.330 NA
ATOM     27 C27  LIG A   1      15.759  12.367   2.765  1.00 20.00    -0.038 A 
ATOM     28 C28  LIG A   1      16.555  12.796   3.842  1.00 20.00    -0.052 A 
ATOM     29 C29  LIG A   1      17.908  13.518   6.305  1.00 20.00    +0.264 C 
ATOM     30 O30  LIG A   1      17.768  12.256   6.119  1.00 20.00    -0.268 OA
ATOM     31 N31  LIG A   1      18.777  13.652   7.466  1.00 20.00    -0.277 NA
ATOM     32 C32  LIG A   1      20.171  13.644   7.287  1.00 20.00    +0.029 C 
ATOM     33 C33  LIG A   1      20.895  14.511   6.398  1.00 20.00    -0.034 C 
ATOM     34 C34  LIG A   1      20.739  15.855   5.922  1.00 20.00    -0.034 C 
ATOM     35 C35  LIG A   1      20.780  17.094   6.698  1.00 20.00    +0.085 C 
ATOM     36 C36  LIG A   1      20.255  18.273   5.958  1.00 20.00    +0.311 C 
ATOM     37 O37  LIG A   1      19.266  18.949   6.359  1.00 20.00    -0.252 OA
ATOM     38 O38  LIG A   1      20.842  18.690   4.768  1.00 20.00    -0.481 OA
ATOM     39 C39  LIG A   1      18.233  13.449   8.764  1.00 20.00    +0.246 C 
ATOM     40 O40  LIG A   1      16.908  13.294   8.493  1.00 20.00    -0.273 OA
ATOM     41 C41  LIG A   1      18.379  13.316  10.140  1.00 20.00    +0.088 C 
ATOM     42 N42  LIG A   1      16.995  12.850  10.623  1.00 20.00    -0.320 NA
ATOM     43 C43  LIG A   1      17.539  14.122   5.884  1.00 20.00    +0.000 C 
ATOM     44 C44  LIG A   1      16.306  14.820   5.357  1.00 20.00    +0.000 C 
ATOM     45 Se45 LIG A   1      14.911  13.538   4.939  1.00 20.00    +0.000 Se
ATOM     46 C46  LIG A   1      14.848  13.088   3.071  1.00 20.00    +0.000 C 
ATOM     47 H47  LIG A   1      20.638  13.180  11.455  1.00 20.00    +0.023 H 
ATOM     48 H48  LIG A   1      20.850  14.528  10.394  1.00 20.00    +0.023 H 
ATOM     49 H49  LIG A   1      20.665  14.725  12.244  1.00 20.00    +0.023 H 
ATOM     50 H50  LIG A   1      18.537  13.727  12.190  1.00 20.00    +0.032 H 
ATOM     51 H51  LIG A   1      17.057  15.361  11.128  1.00 20.00    +0.032 H 
ATOM     52 H52  LIG A   1      18.323  16.118  12.152  1.00 20.00    +0.032 H 
ATOM     53 H53  LIG A   1      20.455  16.756  11.159  1.00 20.00    +0.063 H 
ATOM     54 H54  LIG A   1      21.634  17.367   9.142  1.00 20.00    +0.063 H 
ATOM     55 H55  LIG A   1      16.879  15.954   8.921  1.00 20.00    +0.067 H 
ATOM     56 H56  LIG A   1      16.736  16.432   4.943  1.00 20.00    +0.105 H 
ATOM     57 H57  LIG A   1      15.190  15.840   4.200  1.00 20.00    +0.063 H 
ATOM     58 H58  LIG A   1      13.882  15.060   2.352  1.00 20.00    +0.064 H 
ATOM     59 H59  LIG A   1      13.286  13.429   0.781  1.00 20.00    +0.160 HD
ATOM     60 H60  LIG A   1      15.313  11.432   0.302  1.00 20.00    +0.049 H 
ATOM     61 H61  LIG A   1      14.180  10.663   1.404  1.00 20.00    +0.049 H 
ATOM     62 H62  LIG A   1      13.695   9.937  -0.790  1.00 20.00    +0.030 H 
ATOM     63 H63  LIG A   1      13.455  11.650  -1.392  1.00 20.00    +0.030 H 
ATOM     64 H64  LIG A   1      11.751  10.088   0.573  1.00 20.00    +0.043 H 
ATOM     65 H65  LIG A   1      11.440  10.368  -1.137  1.00 20.00    +0.043 H 
ATOM     66 H66  LIG A   1      11.240  12.303   1.094  1.00 20.00    +0.122 HD
ATOM     67 H67  LIG A   1      10.485  13.888  -0.229  1.00 20.00    +0.043 H 
ATOM     68 H68  LIG A   1      11.900  13.476  -1.200  1.00 20.00    +0.043 H 
ATOM     69 H69  LIG A   1      10.524  12.040  -2.686  1.00 20.00    +0.028 H 
ATOM     70 H70  LIG A   1      10.037  13.734  -2.556  1.00 20.00    +0.028 H 
ATOM     71 H71  LIG A   1       8.111  12.307  -2.557  1.00 20.00    +0.028 H 
ATOM     72 H72  LIG A   1       8.263  13.350  -1.064  1.00 20.00    +0.028 H 
ATOM     73 H73  LIG A   1       9.028  10.368  -1.304  1.00 20.00    +0.043 H 
ATOM     74 H74  LIG A   1       9.022  11.398   0.247  1.00 20.00    +0.043 H 
ATOM     75 H75  LIG A   1       6.957   9.967  -0.273  1.00 20.00    +0.118 HD
ATOM     76 H76  LIG A   1       6.679  11.210  -1.461  1.00 20.00    +0.118 HD
ATOM     77 H77  LIG A   1      15.885  11.386   2.332  1.00 20.00    +0.064 H 
ATOM     78 H78  LIG A   1      17.288  12.071   4.145  1.00 20.00    +0.063 H 
ATOM     79 H79  LIG A   1      20.722  13.647   8.278  1.00 20.00    +0.050 H 
ATOM     80 H80  LIG A   1      20.417  12.559   6.957  1.00 20.00    +0.050 H 
ATOM     81 H81  LIG A   1      21.001  13.878   5.404  1.00 20.00    +0.029 H 
ATOM     82 H82  LIG A   1      21.974  14.421   6.773  1.00 20.00    +0.029 H 
ATOM     83 H83  LIG A   1      21.688  15.987   5.214  1.00 20.00    +0.028 H 
ATOM     84 H84  LIG A   1      19.988  15.858   5.082  1.00 20.00    +0.028 H 
ATOM     85 H85  LIG A   1      21.829  17.323   6.953  1.00 20.00    +0.047 H 
ATOM     86 H86  LIG A   1      20.435  19.427   4.200  1.00 20.00    +0.296 HD
ATOM     87 H87  LIG A   1      18.903  12.285  10.317  1.00 20.00    +0.057 H 
ATOM     88 H88  LIG A   1      16.372  13.625  10.312  1.00 20.00    +0.119 HD
ATOM     89 H89  LIG A   1      16.764  11.974  10.113  1.00 20.00    +0.119 HD
ATOM     90 H90  LIG A   1      17.861  14.494   6.876  1.00 20.00    +0.000 H 
ATOM     91 H91  LIG A   1      18.362  14.287   5.177  1.00 20.00    +0.000 H 
ATOM     92 H92  LIG A   1      17.297  13.051   6.030  1.00 20.00    +0.000 H 
ATOM     93 H93  LIG A   1      15.942  15.480   6.188  1.00 20.00    +0.000 H 
ATOM     94 H94  LIG A   1      16.520  15.422   4.442  1.00 20.00    +0.000 H 
ATOM     95 H95  LIG A   1      15.180  12.028   2.956  1.00 20.00    +0.000 H 
ATOM     96 H96  LIG A   1      15.450  13.742   2.425  1.00 20.00    +0.000 H 
ATOM     97 H97  LIG A   1      13.802  13.135   2.672  1.00 20.00    +0.000 H 
ENDROOT
TORSDOF 0
                                                                                                    
ENDMDL
MODEL 8
REMARK VINA RESULT:   -10.015      3.859      5.948
REMARK INTER + INTRA:         -10.015
REMARK INTER:                 -10.015
REMARK INTRA:                   0.000
REMARK UNBOUND:                 0.000
ROOT
ATOM      1 C1   LIG A   1      22.871  16.198   4.977  1.00 20.00    -0.060 C 
ATOM      2 C2   LIG A   1      22.580  17.667   4.834  1.00 20.00    -0.016 C 
ATOM      3 C3   LIG A   1      21.096  17.954   4.486  1.00 20.00    -0.023 C 
ATOM      4 C4   LIG A   1      20.311  17.385   5.642  1.00 20.00    -0.044 A 
ATOM      5 C5   LIG A   1      20.305  16.005   5.639  1.00 20.00    -0.058 A 
ATOM      6 C6   LIG A   1      19.951  15.413   6.822  1.00 20.00    -0.054 A 
ATOM      7 C7   LIG A   1      19.641  16.235   7.873  1.00 20.00    +0.009 A 
ATOM      8 C8   LIG A   1      19.619  17.615   7.914  1.00 20.00    +0.130 A 
ATOM      9 C9   LIG A   1      19.988  18.207   6.676  1.00 20.00    -0.016 A 
ATOM     10 O10  LIG A   1      19.281  18.253   9.010  1.00 20.00    -0.464 OA
ATOM     11 C11  LIG A   1      19.687  19.193   9.820  1.00 20.00    +0.104 C 
ATOM     12 C12  LIG A   1      20.874  19.672  10.164  1.00 20.00    +0.082 C 
ATOM     13 C13  LIG A   1      20.943  20.778  11.150  1.00 20.00    -0.010 A 
ATOM     14 C14  LIG A   1      19.831  21.544  11.439  1.00 20.00    -0.052 A 
ATOM     15 C15  LIG A   1      19.851  22.539  12.421  1.00 20.00    -0.038 A 
ATOM     16 C16  LIG A   1      20.988  22.804  13.149  1.00 20.00    +0.034 A 
ATOM     17 N17  LIG A   1      21.000  23.822  14.153  1.00 20.00    -0.385 NA
ATOM     18 C18  LIG A   1      22.227  24.021  14.870  1.00 20.00    +0.016 C 
ATOM     19 C19  LIG A   1      22.255  25.109  15.874  1.00 20.00    -0.023 C 
ATOM     20 C20  LIG A   1      22.036  26.497  15.398  1.00 20.00    -0.003 C 
ATOM     21 N21  LIG A   1      20.821  26.825  14.777  1.00 20.00    -0.317 NA
ATOM     22 C22  LIG A   1      19.633  26.847  15.528  1.00 20.00    -0.005 C 
ATOM     23 C23  LIG A   1      19.461  27.893  16.562  1.00 20.00    -0.039 C 
ATOM     24 C24  LIG A   1      19.461  29.273  16.042  1.00 20.00    -0.040 C 
ATOM     25 C25  LIG A   1      20.744  29.631  15.359  1.00 20.00    -0.008 C 
ATOM     26 N26  LIG A   1      20.631  31.048  14.933  1.00 20.00    -0.330 NA
ATOM     27 C27  LIG A   1      22.099  22.048  12.869  1.00 20.00    -0.038 A 
ATOM     28 C28  LIG A   1      22.077  21.046  11.882  1.00 20.00    -0.052 A 
ATOM     29 C29  LIG A   1      22.149  19.274   9.586  1.00 20.00    +0.264 C 
ATOM     30 O30  LIG A   1      23.282  19.782   9.908  1.00 20.00    -0.268 OA
ATOM     31 N31  LIG A   1      22.439  18.276   8.566  1.00 20.00    -0.277 NA
ATOM     32 C32  LIG A   1      22.779  16.970   8.958  1.00 20.00    +0.029 C 
ATOM     33 C33  LIG A   1      21.996  16.138   9.830  1.00 20.00    -0.034 C 
ATOM     34 C34  LIG A   1      20.598  15.964  10.100  1.00 20.00    -0.034 C 
ATOM     35 C35  LIG A   1      19.558  15.489   9.187  1.00 20.00    +0.085 C 
ATOM     36 C36  LIG A   1      18.178  15.744   9.680  1.00 20.00    +0.311 C 
ATOM     37 O37  LIG A   1      17.344  16.451   9.048  1.00 20.00    -0.252 OA
ATOM     38 O38  LIG A   1      17.737  15.203  10.883  1.00 20.00    -0.481 OA
ATOM     39 C39  LIG A   1      22.705  18.703   7.236  1.00 20.00    +0.246 C 
ATOM     40 O40  LIG A   1      22.463  20.040   7.316  1.00 20.00    -0.273 OA
ATOM     41 C41  LIG A   1      23.098  18.444   5.928  1.00 20.00    +0.088 C 
ATOM     42 N42  LIG A   1      23.260  19.840   5.300  1.00 20.00    -0.320 NA
ATOM     43 C43  LIG A   1      21.409  19.505   9.864  1.00 20.00    +0.000 C 
ATOM     44 C44  LIG A   1      20.337  20.544  10.100  1.00 20.00    +0.000 C 
ATOM     45 Se45 LIG A   1      21.125  22.280  10.458  1.00 20.00    +0.000 Se
ATOM     46 C46  LIG A   1      21.227  22.679  12.335  1.00 20.00    +0.000 C 
ATOM     47 H47  LIG A   1      24.031  16.180   5.006  1.00 20.00    +0.023 H 
ATOM     48 H48  LIG A   1      22.629  15.720   5.906  1.00 20.00    +0.023 H 
ATOM     49 H49  LIG A   1      22.700  15.631   4.040  1.00 20.00    +0.023 H 
ATOM     50 H50  LIG A   1      23.087  17.945   3.891  1.00 20.00    +0.032 H 
ATOM     51 H51  LIG A   1      20.972  19.019   4.494  1.00 20.00    +0.032 H 
ATOM     52 H52  LIG A   1      20.750  17.484   3.589  1.00 20.00    +0.032 H 
ATOM     53 H53  LIG A   1      20.533  15.385   4.810  1.00 20.00    +0.063 H 
ATOM     54 H54  LIG A   1      19.925  14.321   6.891  1.00 20.00    +0.063 H 
ATOM     55 H55  LIG A   1      19.997  19.274   6.552  1.00 20.00    +0.067 H 
ATOM     56 H56  LIG A   1      18.847  19.729  10.365  1.00 20.00    +0.105 H 
ATOM     57 H57  LIG A   1      18.885  21.454  10.930  1.00 20.00    +0.063 H 
ATOM     58 H58  LIG A   1      18.981  23.129  12.638  1.00 20.00    +0.064 H 
ATOM     59 H59  LIG A   1      20.118  24.333  14.294  1.00 20.00    +0.160 HD
ATOM     60 H60  LIG A   1      22.466  23.015  15.332  1.00 20.00    +0.049 H 
ATOM     61 H61  LIG A   1      23.085  24.185  14.176  1.00 20.00    +0.049 H 
ATOM     62 H62  LIG A   1      23.286  25.101  16.343  1.00 20.00    +0.030 H 
ATOM     63 H63  LIG A   1      21.494  24.918  16.676  1.00 20.00    +0.030 H 
ATOM     64 H64  LIG A   1      22.863  26.757  14.687  1.00 20.00    +0.043 H 
ATOM     65 H65  LIG A   1      22.233  27.169  16.279  1.00 20.00    +0.043 H 
ATOM     66 H66  LIG A   1      20.709  26.564  13.814  1.00 20.00    +0.122 HD
ATOM     67 H67  LIG A   1      18.785  26.990  14.791  1.00 20.00    +0.043 H 
ATOM     68 H68  LIG A   1      19.385  25.867  16.014  1.00 20.00    +0.043 H 
ATOM     69 H69  LIG A   1      20.147  27.750  17.440  1.00 20.00    +0.028 H 
ATOM     70 H70  LIG A   1      18.432  27.724  17.021  1.00 20.00    +0.028 H 
ATOM     71 H71  LIG A   1      19.287  29.961  16.906  1.00 20.00    +0.028 H 
ATOM     72 H72  LIG A   1      18.582  29.353  15.333  1.00 20.00    +0.028 H 
ATOM     73 H73  LIG A   1      21.578  29.487  16.069  1.00 20.00    +0.043 H 
ATOM     74 H74  LIG A   1      20.853  29.027  14.417  1.00 20.00    +0.043 H 
ATOM     75 H75  LIG A   1      21.591  31.456  14.790  1.00 20.00    +0.118 HD
ATOM     76 H76  LIG A   1      20.140  31.508  15.752  1.00 20.00    +0.118 HD
ATOM     77 H77  LIG A   1      22.994  22.253  13.437  1.00 20.00    +0.064 H 
ATOM     78 H78  LIG A   1      23.006  20.516  11.791  1.00 20.00    +0.063 H 
ATOM     79 H79  LIG A   1      23.084  16.330   8.072  1.00 20.00    +0.050 H 
ATOM     80 H80  LIG A   1      23.821  17.077   9.458  1.00 20.00    +0.050 H 
ATOM     81 H81  LIG A   1      22.461  16.327  10.901  1.00 20.00    +0.029 H 
ATOM     82 H82  LIG A   1      22.424  15.092   9.641  1.00 20.00    +0.029 H 
ATOM     83 H83  LIG A   1      20.602  15.103  10.923  1.00 20.00    +0.028 H 
ATOM     84 H84  LIG A   1      20.261  16.774  10.807  1.00 20.00    +0.028 H 
ATOM     85 H85  LIG A   1      19.655  14.396   9.071  1.00 20.00    +0.047 H 
ATOM     86 H86  LIG A   1      16.836  15.449  11.282  1.00 20.00    +0.296 HD
ATOM     87 H87  LIG A   1      24.244  18.214   5.967  1.00 20.00    +0.057 H 
ATOM     88 H88  LIG A   1      22.310  20.251   5.409  1.00 20.00    +0.119 HD
ATOM     89 H89  LIG A   1      23.950  20.364   5.876  1.00 20.00    +0.119 HD
ATOM     90 H90  LIG A   1      21.302  18.980   8.894  1.00 20.00    +0.000 H 
ATOM     91 H91  LIG A   1      21.349  18.754  10.663  1.00 20.00    +0.000 H 
ATOM     92 H92  LIG A   1      22.389  20.019   9.821  1.00 20.00    +0.000 H 
ATOM     93 H93  LIG A   1      19.752  20.611   9.145  1.00 20.00    +0.000 H 
ATOM     94 H94  LIG A   1      19.668  20.275  10.952  1.00 20.00    +0.000 H 
ATOM     95 H95  LIG A   1      22.303  22.673  12.635  1.00 20.00    +0.000 H 
ATOM     96 H96  LIG A   1      20.655  21.996  12.978  1.00 20.00    +0.000 H 
ATOM     97 H97  LIG A   1      20.845  23.708  12.559  1.00 20.00    +0.000 H 
ENDROOT
TORSDOF 0
                                                                                                    
ENDMDL
MODEL 9
REMARK VINA RESULT:    -9.591      4.917      7.770
REMARK INTER + INTRA:          -9.591
REMARK INTER:                  -9.591
REMARK INTRA:                   0.000
REMARK UNBOUND:                 0.000
ROOT
ATOM      1 C1   LIG A   1      19.373  14.477   3.728  1.00 20.00    -0.060 C 
ATOM      2 C2   LIG A   1      18.450  14.834   4.861  1.00 20.00    -0.016 C 
ATOM      3 C3   LIG A   1      18.709  13.988   6.136  1.00 20.00    -0.023 C 
ATOM      4 C4   LIG A   1      20.136  14.294   6.520  1.00 20.00    -0.044 A 
ATOM      5 C5   LIG A   1      21.043  13.721   5.652  1.00 20.00    -0.058 A 
ATOM      6 C6   LIG A   1      22.310  14.240   5.695  1.00 20.00    -0.054 A 
ATOM      7 C7   LIG A   1      22.547  15.258   6.581  1.00 20.00    +0.009 A 
ATOM      8 C8   LIG A   1      21.674  15.847   7.474  1.00 20.00    +0.130 A 
ATOM      9 C9   LIG A   1      20.368  15.293   7.413  1.00 20.00    -0.016 A 
ATOM     10 O10  LIG A   1      22.073  16.811   8.271  1.00 20.00    -0.464 OA
ATOM     11 C11  LIG A   1      21.768  18.021   8.653  1.00 20.00    +0.104 C 
ATOM     12 C12  LIG A   1      21.135  19.040   8.091  1.00 20.00    +0.082 C 
ATOM     13 C13  LIG A   1      20.978  20.300   8.858  1.00 20.00    -0.010 A 
ATOM     14 C14  LIG A   1      21.144  20.324  10.228  1.00 20.00    -0.052 A 
ATOM     15 C15  LIG A   1      21.079  21.513  10.962  1.00 20.00    -0.038 A 
ATOM     16 C16  LIG A   1      20.843  22.722  10.349  1.00 20.00    +0.034 A 
ATOM     17 N17  LIG A   1      20.780  23.933  11.106  1.00 20.00    -0.385 NA
ATOM     18 C18  LIG A   1      20.540  25.147  10.381  1.00 20.00    +0.016 C 
ATOM     19 C19  LIG A   1      20.425  26.394  11.171  1.00 20.00    -0.023 C 
ATOM     20 C20  LIG A   1      19.320  26.490  12.157  1.00 20.00    -0.003 C 
ATOM     21 N21  LIG A   1      19.266  25.573  13.217  1.00 20.00    -0.317 NA
ATOM     22 C22  LIG A   1      20.236  25.617  14.233  1.00 20.00    -0.005 C 
ATOM     23 C23  LIG A   1      20.255  26.778  15.152  1.00 20.00    -0.039 C 
ATOM     24 C24  LIG A   1      19.031  26.938  15.960  1.00 20.00    -0.040 C 
ATOM     25 C25  LIG A   1      17.810  27.147  15.120  1.00 20.00    -0.008 C 
ATOM     26 N26  LIG A   1      16.669  27.344  16.049  1.00 20.00    -0.330 NA
ATOM     27 C27  LIG A   1      20.676  22.708   8.987  1.00 20.00    -0.038 A 
ATOM     28 C28  LIG A   1      20.743  21.512   8.249  1.00 20.00    -0.052 A 
ATOM     29 C29  LIG A   1      20.479  19.017   6.792  1.00 20.00    +0.264 C 
ATOM     30 O30  LIG A   1      19.837  20.007   6.285  1.00 20.00    -0.268 OA
ATOM     31 N31  LIG A   1      20.384  17.943   5.814  1.00 20.00    -0.277 NA
ATOM     32 C32  LIG A   1      21.330  17.871   4.777  1.00 20.00    +0.029 C 
ATOM     33 C33  LIG A   1      22.756  17.848   4.958  1.00 20.00    -0.034 C 
ATOM     34 C34  LIG A   1      23.656  17.337   5.951  1.00 20.00    -0.034 C 
ATOM     35 C35  LIG A   1      23.874  15.942   6.335  1.00 20.00    +0.085 C 
ATOM     36 C36  LIG A   1      24.620  15.791   7.613  1.00 20.00    +0.311 C 
ATOM     37 O37  LIG A   1      24.141  15.198   8.621  1.00 20.00    -0.252 OA
ATOM     38 O38  LIG A   1      25.904  16.306   7.758  1.00 20.00    -0.481 OA
ATOM     39 C39  LIG A   1      19.175  17.200   5.716  1.00 20.00    +0.246 C 
ATOM     40 O40  LIG A   1      18.453  17.700   6.756  1.00 20.00    -0.273 OA
ATOM     41 C41  LIG A   1      18.375  16.251   5.091  1.00 20.00    +0.088 C 
ATOM     42 N42  LIG A   1      17.004  16.409   5.770  1.00 20.00    -0.320 NA
ATOM     43 C43  LIG A   1      20.825  18.986   7.539  1.00 20.00    +0.000 C 
ATOM     44 C44  LIG A   1      20.762  19.099   9.044  1.00 20.00    +0.000 C 
ATOM     45 Se45 LIG A   1      19.489  20.460   9.582  1.00 20.00    +0.000 Se
ATOM     46 C46  LIG A   1      20.323  22.144   9.987  1.00 20.00    +0.000 C 
ATOM     47 H47  LIG A   1      18.887  15.032   2.833  1.00 20.00    +0.023 H 
ATOM     48 H48  LIG A   1      20.360  14.895   3.727  1.00 20.00    +0.023 H 
ATOM     49 H49  LIG A   1      19.251  13.429   3.386  1.00 20.00    +0.023 H 
ATOM     50 H50  LIG A   1      17.468  14.444   4.533  1.00 20.00    +0.032 H 
ATOM     51 H51  LIG A   1      18.069  14.374   6.904  1.00 20.00    +0.032 H 
ATOM     52 H52  LIG A   1      18.626  12.930   5.993  1.00 20.00    +0.032 H 
ATOM     53 H53  LIG A   1      20.844  12.924   4.984  1.00 20.00    +0.063 H 
ATOM     54 H54  LIG A   1      23.081  13.833   5.034  1.00 20.00    +0.063 H 
ATOM     55 H55  LIG A   1      19.588  15.637   8.065  1.00 20.00    +0.067 H 
ATOM     56 H56  LIG A   1      22.121  18.278   9.703  1.00 20.00    +0.105 H 
ATOM     57 H57  LIG A   1      21.315  19.448  10.833  1.00 20.00    +0.063 H 
ATOM     58 H58  LIG A   1      21.210  21.520  12.028  1.00 20.00    +0.064 H 
ATOM     59 H59  LIG A   1      20.922  23.842  12.122  1.00 20.00    +0.160 HD
ATOM     60 H60  LIG A   1      21.377  25.206   9.620  1.00 20.00    +0.049 H 
ATOM     61 H61  LIG A   1      19.628  25.070   9.743  1.00 20.00    +0.049 H 
ATOM     62 H62  LIG A   1      20.257  27.239  10.434  1.00 20.00    +0.030 H 
ATOM     63 H63  LIG A   1      21.376  26.591  11.731  1.00 20.00    +0.030 H 
ATOM     64 H64  LIG A   1      18.349  26.425  11.600  1.00 20.00    +0.043 H 
ATOM     65 H65  LIG A   1      19.327  27.549  12.539  1.00 20.00    +0.043 H 
ATOM     66 H66  LIG A   1      18.901  24.658  13.019  1.00 20.00    +0.122 HD
ATOM     67 H67  LIG A   1      20.070  24.704  14.881  1.00 20.00    +0.043 H 
ATOM     68 H68  LIG A   1      21.286  25.480  13.863  1.00 20.00    +0.043 H 
ATOM     69 H69  LIG A   1      20.578  27.727  14.646  1.00 20.00    +0.028 H 
ATOM     70 H70  LIG A   1      21.102  26.589  15.891  1.00 20.00    +0.028 H 
ATOM     71 H71  LIG A   1      19.183  27.817  16.634  1.00 20.00    +0.028 H 
ATOM     72 H72  LIG A   1      18.938  26.006  16.596  1.00 20.00    +0.028 H 
ATOM     73 H73  LIG A   1      17.966  28.033  14.478  1.00 20.00    +0.043 H 
ATOM     74 H74  LIG A   1      17.585  26.211  14.539  1.00 20.00    +0.043 H 
ATOM     75 H75  LIG A   1      15.888  27.846  15.554  1.00 20.00    +0.118 HD
ATOM     76 H76  LIG A   1      17.084  27.945  16.816  1.00 20.00    +0.118 HD
ATOM     77 H77  LIG A   1      20.490  23.654   8.501  1.00 20.00    +0.064 H 
ATOM     78 H78  LIG A   1      20.623  21.655   7.192  1.00 20.00    +0.063 H 
ATOM     79 H79  LIG A   1      21.076  17.056   4.031  1.00 20.00    +0.050 H 
ATOM     80 H80  LIG A   1      21.101  18.792   4.109  1.00 20.00    +0.050 H 
ATOM     81 H81  LIG A   1      23.077  18.982   4.853  1.00 20.00    +0.029 H 
ATOM     82 H82  LIG A   1      23.138  17.469   3.947  1.00 20.00    +0.029 H 
ATOM     83 H83  LIG A   1      24.721  17.630   5.506  1.00 20.00    +0.028 H 
ATOM     84 H84  LIG A   1      23.703  18.067   6.809  1.00 20.00    +0.028 H 
ATOM     85 H85  LIG A   1      24.478  15.447   5.557  1.00 20.00    +0.047 H 
ATOM     86 H86  LIG A   1      26.386  16.301   8.652  1.00 20.00    +0.296 HD
ATOM     87 H87  LIG A   1      18.041  16.721   4.073  1.00 20.00    +0.057 H 
ATOM     88 H88  LIG A   1      17.222  16.221   6.771  1.00 20.00    +0.119 HD
ATOM     89 H89  LIG A   1      16.703  17.396   5.644  1.00 20.00    +0.119 HD
ATOM     90 H90  LIG A   1      20.627  17.960   7.169  1.00 20.00    +0.000 H 
ATOM     91 H91  LIG A   1      21.831  19.275   7.209  1.00 20.00    +0.000 H 
ATOM     92 H92  LIG A   1      20.025  19.619   7.108  1.00 20.00    +0.000 H 
ATOM     93 H93  LIG A   1      20.396  18.106   9.417  1.00 20.00    +0.000 H 
ATOM     94 H94  LIG A   1      21.754  19.345   9.491  1.00 20.00    +0.000 H 
ATOM     95 H95  LIG A   1      20.032  22.877   9.196  1.00 20.00    +0.000 H 
ATOM     96 H96  LIG A   1      21.418  22.099  10.072  1.00 20.00    +0.000 H 
ATOM     97 H97  LIG A   1      19.953  22.564  10.957  1.00 20.00    +0.000 H 
ENDROOT
TORSDOF 0
                                                                                                    
ENDMDL
