ROOT
ATOM      1 C1   LIG A   1       9.423  -0.703   0.219  1.00 20.00    -0.060 C 
ATOM      2 C2   LIG A   1       7.970  -1.193   0.084  1.00 20.00    -0.016 C 
ATOM      3 C3   LIG A   1       7.550  -1.735   1.494  1.00 20.00    -0.023 C 
ATOM      4 C4   LIG A   1       6.076  -2.001   1.633  1.00 20.00    -0.048 A 
ATOM      5 C5   LIG A   1       5.281  -1.114   2.365  1.00 20.00    -0.058 A 
ATOM      6 C6   LIG A   1       3.924  -1.026   2.084  1.00 20.00    -0.051 A 
ATOM      7 C7   LIG A   1       3.395  -1.778   1.032  1.00 20.00    +0.017 A 
ATOM      8 C8   LIG A   1       4.120  -2.872   0.545  1.00 20.00    -0.051 A 
ATOM      9 C9   LIG A   1       5.470  -2.992   0.858  1.00 20.00    -0.058 A 
ATOM     10 C10  LIG A   1       2.228  -1.276   0.278  1.00 20.00    +0.140 C 
ATOM     11 C11  LIG A   1       2.294  -1.030  -1.050  1.00 20.00    +0.047 C 
ATOM     12 C12  LIG A   1       3.520  -0.859  -1.897  1.00 20.00    +0.256 C 
ATOM     13 O13  LIG A   1       3.415  -1.016  -3.112  1.00 20.00    -0.269 OA
ATOM     14 N14  LIG A   1       4.545  -0.143  -1.289  1.00 20.00    -0.278 NA
ATOM     15 C15  LIG A   1       4.463   1.322  -1.409  1.00 20.00    +0.029 C 
ATOM     16 C16  LIG A   1       3.096   1.981  -1.100  1.00 20.00    -0.034 C 
ATOM     17 C17  LIG A   1       2.768   1.975   0.397  1.00 20.00    -0.034 C 
ATOM     18 C18  LIG A   1       1.291   2.217   0.768  1.00 20.00    +0.085 C 
ATOM     19 C19  LIG A   1       1.208   2.392   2.279  1.00 20.00    +0.311 C 
ATOM     20 O20  LIG A   1       1.385   1.543   3.137  1.00 20.00    -0.252 OA
ATOM     21 O21  LIG A   1       0.941   3.667   2.638  1.00 20.00    -0.481 OA
ATOM     22 C22  LIG A   1       0.210   1.252   0.285  1.00 20.00    +0.009 A 
ATOM     23 C23  LIG A   1      -0.891   1.821  -0.385  1.00 20.00    -0.052 A 
ATOM     24 C24  LIG A   1      -1.992   1.054  -0.795  1.00 20.00    -0.038 A 
ATOM     25 C25  LIG A   1      -2.071  -0.310  -0.516  1.00 20.00    +0.038 A 
ATOM     26 N26  LIG A   1      -3.104  -1.137  -0.946  1.00 20.00    -0.385 NA
ATOM     27 C27  LIG A   1      -4.402  -0.623  -1.369  1.00 20.00    +0.016 C 
ATOM     28 C28  LIG A   1      -5.245  -0.177  -0.174  1.00 20.00    -0.023 C 
ATOM     29 C29  LIG A   1      -6.608   0.340  -0.641  1.00 20.00    -0.003 C 
ATOM     30 N30  LIG A   1      -7.426   0.704   0.515  1.00 20.00    -0.317 NA
ATOM     31 C31  LIG A   1      -8.711   1.290   0.130  1.00 20.00    -0.005 C 
ATOM     32 C32  LIG A   1      -9.881   0.418   0.599  1.00 20.00    -0.039 C 
ATOM     33 C33  LIG A   1      -9.984  -0.957  -0.074  1.00 20.00    -0.040 C 
ATOM     34 C34  LIG A   1     -10.187  -0.933  -1.591  1.00 20.00    -0.008 C 
ATOM     35 N35  LIG A   1     -11.430  -0.285  -1.994  1.00 20.00    -0.330 NA
ATOM     36 C36  LIG A   1      -0.969  -0.890   0.119  1.00 20.00    +0.004 A 
ATOM     37 C37  LIG A   1       0.155  -0.136   0.504  1.00 20.00    +0.133 A 
ATOM     38 O38  LIG A   1       1.166  -0.867   1.089  1.00 20.00    -0.456 OA
ATOM     39 C39  LIG A   1       5.791  -0.786  -1.306  1.00 20.00    +0.246 C 
ATOM     40 O40  LIG A   1       5.965  -1.865  -1.884  1.00 20.00    -0.273 OA
ATOM     41 C41  LIG A   1       6.992  -0.110  -0.535  1.00 20.00    +0.088 C 
ATOM     42 N42  LIG A   1       7.705   0.743  -1.514  1.00 20.00    -0.320 NA
ATOM     43 C43  LIG A   1      -3.219   0.892  -0.075  1.00 20.00    -0.048 C 
ATOM     44 C44  LIG A   1      -2.220  -0.223   0.182  1.00 20.00    +0.015 C 
ATOM     45 N45  LIG A   1      -0.868   0.267  -0.028  1.00 20.00    -0.357 NA
ATOM     46 C46  LIG A   1       0.247  -0.520   0.042  1.00 20.00    +0.195 C 
ATOM     47 N47  LIG A   1       0.247  -1.800   0.203  1.00 20.00    -0.269 NA
ATOM     48 N48  LIG A   1       1.401   0.193  -0.099  1.00 20.00    -0.298 NA
ATOM     49 C49  LIG A   1       2.705  -0.160   0.009  1.00 20.00    +0.192 C 
ATOM     50 N50  LIG A   1       3.168  -1.310   0.355  1.00 20.00    -0.269 NA
ATOM     51 N51  LIG A   1       3.578   0.833  -0.281  1.00 20.00    -0.370 NA
ATOM     52 H52  LIG A   1       9.872  -0.505  -0.760  1.00 20.00    +0.023 H 
ATOM     53 H53  LIG A   1      10.047  -1.464   0.703  1.00 20.00    +0.023 H 
ATOM     54 H54  LIG A   1       9.480   0.210   0.820  1.00 20.00    +0.023 H 
ATOM     55 H55  LIG A   1       8.001  -2.056  -0.594  1.00 20.00    +0.032 H 
ATOM     56 H56  LIG A   1       7.861  -1.019   2.266  1.00 20.00    +0.032 H 
ATOM     57 H57  LIG A   1       8.100  -2.661   1.709  1.00 20.00    +0.032 H 
ATOM     58 H58  LIG A   1       5.726  -0.397   3.050  1.00 20.00    +0.063 H 
ATOM     59 H59  LIG A   1       3.333  -0.257   2.576  1.00 20.00    +0.063 H 
ATOM     60 H60  LIG A   1       3.703  -3.523  -0.222  1.00 20.00    +0.063 H 
ATOM     61 H61  LIG A   1       6.070  -3.728   0.323  1.00 20.00    +0.063 H 
ATOM     62 H62  LIG A   1       1.413  -0.732  -1.611  1.00 20.00    +0.072 H 
ATOM     63 H63  LIG A   1       4.727   1.561  -2.447  1.00 20.00    +0.050 H 
ATOM     64 H64  LIG A   1       5.218   1.790  -0.773  1.00 20.00    +0.050 H 
ATOM     65 H65  LIG A   1       2.298   1.526  -1.693  1.00 20.00    +0.029 H 
ATOM     66 H66  LIG A   1       3.143   3.028  -1.428  1.00 20.00    +0.029 H 
ATOM     67 H67  LIG A   1       3.120   1.061   0.854  1.00 20.00    +0.028 H 
ATOM     68 H68  LIG A   1       3.378   2.759   0.868  1.00 20.00    +0.028 H 
ATOM     69 H69  LIG A   1       1.057   3.203   0.337  1.00 20.00    +0.047 H 
ATOM     70 H70  LIG A   1       0.899   3.629   3.618  1.00 20.00    +0.296 HD
ATOM     71 H71  LIG A   1      -0.915   2.890  -0.596  1.00 20.00    +0.063 H 
ATOM     72 H72  LIG A   1      -2.790   1.562  -1.327  1.00 20.00    +0.064 H 
ATOM     73 H73  LIG A   1      -3.172  -1.998  -0.407  1.00 20.00    +0.160 HD
ATOM     74 H74  LIG A   1      -4.924  -1.437  -1.887  1.00 20.00    +0.049 H 
ATOM     75 H75  LIG A   1      -4.294   0.177  -2.108  1.00 20.00    +0.049 H 
ATOM     76 H76  LIG A   1      -4.724   0.609   0.386  1.00 20.00    +0.030 H 
ATOM     77 H77  LIG A   1      -5.378  -1.019   0.516  1.00 20.00    +0.030 H 
ATOM     78 H78  LIG A   1      -6.460   1.208  -1.293  1.00 20.00    +0.043 H 
ATOM     79 H79  LIG A   1      -7.110  -0.441  -1.220  1.00 20.00    +0.043 H 
ATOM     80 H80  LIG A   1      -6.911   1.370   1.094  1.00 20.00    +0.122 HD
ATOM     81 H81  LIG A   1      -8.780   1.490  -0.945  1.00 20.00    +0.043 H 
ATOM     82 H82  LIG A   1      -8.800   2.266   0.621  1.00 20.00    +0.043 H 
ATOM     83 H83  LIG A   1     -10.815   0.973   0.449  1.00 20.00    +0.028 H 
ATOM     84 H84  LIG A   1      -9.800   0.265   1.684  1.00 20.00    +0.028 H 
ATOM     85 H85  LIG A   1     -10.817  -1.504   0.388  1.00 20.00    +0.028 H 
ATOM     86 H86  LIG A   1      -9.083  -1.540   0.150  1.00 20.00    +0.028 H 
ATOM     87 H87  LIG A   1     -10.202  -1.964  -1.960  1.00 20.00    +0.043 H 
ATOM     88 H88  LIG A   1      -9.350  -0.437  -2.092  1.00 20.00    +0.043 H 
ATOM     89 H89  LIG A   1     -11.439   0.683  -1.677  1.00 20.00    +0.118 HD
ATOM     90 H90  LIG A   1     -12.215  -0.740  -1.528  1.00 20.00    +0.118 HD
ATOM     91 H91  LIG A   1      -0.962  -1.961   0.310  1.00 20.00    +0.068 H 
ATOM     92 H92  LIG A   1       6.606   0.523   0.269  1.00 20.00    +0.057 H 
ATOM     93 H93  LIG A   1       7.068   1.353  -2.019  1.00 20.00    +0.119 HD
ATOM     94 H94  LIG A   1       8.377   1.339  -1.035  1.00 20.00    +0.119 HD
ATOM     95 H95  LIG A   1      -3.049   1.738   0.599  1.00 20.00    +0.025 H 
ATOM     96 H96  LIG A   1      -3.138   1.262  -1.103  1.00 20.00    +0.025 H 
ATOM     97 H97  LIG A   1      -4.241   0.532   0.080  1.00 20.00    +0.025 H 
ATOM     98 H98  LIG A   1      -2.329  -0.584   1.210  1.00 20.00    +0.049 H 
ATOM     99 H99  LIG A   1      -2.431  -1.053  -0.501  1.00 20.00    +0.049 H 
ATOM    100 H100 LIG A   1      -0.734   1.195   0.360  1.00 20.00    +0.163 HD
ATOM    101 H101 LIG A   1      -0.708  -2.148   0.269  1.00 20.00    +0.191 HD
ATOM    102 H102 LIG A   1       1.276   1.170  -0.308  1.00 20.00    +0.173 HD
ATOM    103 H103 LIG A   1       2.330  -1.904   0.507  1.00 20.00    +0.191 HD
ATOM    104 H104 LIG A   1       4.516   0.444  -0.194  1.00 20.00    +0.159 HD
ATOM    105 H105 LIG A   1       3.470   1.176  -1.228  1.00 20.00    +0.159 HD
ENDROOT
TORSDOF 0
