MODEL 1
REMARK VINA RESULT:    -9.365      0.000      0.000
REMARK INTER + INTRA:          -9.365
REMARK INTER:                  -9.365
REMARK INTRA:                   0.000
REMARK UNBOUND:                 0.000
ROOT
ATOM      1 N1   LIG A   1      18.903  10.807   6.975  1.00 20.00    -0.330 NA
ATOM      2 C2   LIG A   1      18.424  11.686   8.036  1.00 20.00    -0.008 C 
ATOM      3 C3   LIG A   1      18.355  13.136   7.556  1.00 20.00    -0.040 C 
ATOM      4 C4   LIG A   1      17.838  14.061   8.663  1.00 20.00    -0.039 C 
ATOM      5 C5   LIG A   1      17.690  15.514   8.202  1.00 20.00    -0.005 C 
ATOM      6 N6   LIG A   1      18.989  16.089   7.852  1.00 20.00    -0.317 NA
ATOM      7 C7   LIG A   1      18.849  17.463   7.365  1.00 20.00    -0.003 C 
ATOM      8 C8   LIG A   1      20.229  18.027   7.019  1.00 20.00    -0.023 C 
ATOM      9 C9   LIG A   1      20.151  19.411   6.373  1.00 20.00    +0.016 C 
ATOM     10 N10  LIG A   1      19.613  20.427   7.267  1.00 20.00    -0.385 NA
ATOM     11 C11  LIG A   1      20.313  20.948   8.347  1.00 20.00    +0.034 A 
ATOM     12 C12  LIG A   1      21.692  20.814   8.522  1.00 20.00    -0.038 A 
ATOM     13 C13  LIG A   1      22.357  21.427   9.596  1.00 20.00    -0.049 A 
ATOM     14 C14  LIG A   1      21.664  22.220  10.517  1.00 20.00    +0.017 A 
ATOM     15 C15  LIG A   1      22.364  22.871  11.621  1.00 20.00    +0.134 A 
ATOM     16 C16  LIG A   1      23.650  22.818  12.120  1.00 20.00    -0.015 A 
ATOM     17 C17  LIG A   1      23.702  23.722  13.212  1.00 20.00    -0.015 A 
ATOM     18 C18  LIG A   1      22.446  24.281  13.327  1.00 20.00    +0.134 A 
ATOM     19 C19  LIG A   1      21.843  25.276  14.210  1.00 20.00    +0.017 A 
ATOM     20 C20  LIG A   1      22.631  26.030  15.086  1.00 20.00    -0.049 A 
ATOM     21 C21  LIG A   1      22.058  26.997  15.927  1.00 20.00    -0.038 A 
ATOM     22 C22  LIG A   1      20.679  27.221  15.946  1.00 20.00    +0.034 A 
ATOM     23 N23  LIG A   1      20.056  28.209  16.700  1.00 20.00    -0.385 NA
ATOM     24 C24  LIG A   1      20.717  28.902  17.803  1.00 20.00    +0.016 C 
ATOM     25 C25  LIG A   1      21.388  30.190  17.319  1.00 20.00    -0.023 C 
ATOM     26 C26  LIG A   1      20.386  31.254  16.857  1.00 20.00    -0.003 C 
ATOM     27 N27  LIG A   1      19.623  31.786  17.994  1.00 20.00    -0.317 NA
ATOM     28 C28  LIG A   1      18.557  32.696  17.568  1.00 20.00    -0.005 C 
ATOM     29 C29  LIG A   1      17.344  31.994  16.944  1.00 20.00    -0.039 C 
ATOM     30 C30  LIG A   1      16.689  30.979  17.890  1.00 20.00    -0.040 C 
ATOM     31 C31  LIG A   1      15.511  30.230  17.262  1.00 20.00    -0.008 C 
ATOM     32 N32  LIG A   1      14.392  31.100  16.921  1.00 20.00    -0.330 NA
ATOM     33 C33  LIG A   1      19.900  26.482  15.047  1.00 20.00    -0.038 A 
ATOM     34 C34  LIG A   1      20.466  25.519  14.201  1.00 20.00    -0.049 A 
ATOM     35 O35  LIG A   1      21.632  23.755  12.363  1.00 20.00    -0.456 OA
ATOM     36 C36  LIG A   1      20.288  22.382  10.329  1.00 20.00    -0.049 A 
ATOM     37 C37  LIG A   1      19.630  21.764   9.258  1.00 20.00    -0.038 A 
ATOM     38 N38  LIG A   1      20.394  24.833  13.726  1.00 20.00    -0.330 NA
ATOM     39 C39  LIG A   1      19.289  23.903  13.495  1.00 20.00    -0.007 C 
ATOM     40 C40  LIG A   1      19.024  23.702  12.002  1.00 20.00    -0.029 C 
ATOM     41 C41  LIG A   1      20.096  22.876  11.288  1.00 20.00    -0.007 C 
ATOM     42 N42  LIG A   1      20.026  21.463  11.660  1.00 20.00    -0.330 NA
ATOM     43 H43  LIG A   1      18.297  10.899   6.159  1.00 20.00    +0.118 HD
ATOM     44 H44  LIG A   1      19.825  11.121   6.668  1.00 20.00    +0.118 HD
ATOM     45 H45  LIG A   1      19.096  11.603   8.896  1.00 20.00    +0.043 H 
ATOM     46 H46  LIG A   1      17.435  11.345   8.357  1.00 20.00    +0.043 H 
ATOM     47 H47  LIG A   1      17.691  13.206   6.685  1.00 20.00    +0.028 H 
ATOM     48 H48  LIG A   1      19.352  13.459   7.231  1.00 20.00    +0.028 H 
ATOM     49 H49  LIG A   1      16.856  13.705   9.001  1.00 20.00    +0.028 H 
ATOM     50 H50  LIG A   1      18.507  14.011   9.532  1.00 20.00    +0.028 H 
ATOM     51 H51  LIG A   1      17.231  16.094   9.012  1.00 20.00    +0.043 H 
ATOM     52 H52  LIG A   1      17.013  15.551   7.340  1.00 20.00    +0.043 H 
ATOM     53 H53  LIG A   1      19.595  16.082   8.676  1.00 20.00    +0.122 HD
ATOM     54 H54  LIG A   1      18.370  18.085   8.130  1.00 20.00    +0.043 H 
ATOM     55 H55  LIG A   1      18.216  17.474   6.469  1.00 20.00    +0.043 H 
ATOM     56 H56  LIG A   1      20.853  18.057   7.920  1.00 20.00    +0.030 H 
ATOM     57 H57  LIG A   1      20.727  17.352   6.311  1.00 20.00    +0.030 H 
ATOM     58 H58  LIG A   1      21.136  19.710   5.997  1.00 20.00    +0.049 H 
ATOM     59 H59  LIG A   1      19.501  19.361   5.491  1.00 20.00    +0.049 H 
ATOM     60 H60  LIG A   1      18.608  20.376   7.409  1.00 20.00    +0.160 HD
ATOM     61 H61  LIG A   1      22.289  20.233   7.827  1.00 20.00    +0.064 H 
ATOM     62 H62  LIG A   1      23.431  21.283   9.686  1.00 20.00    +0.063 H 
ATOM     63 H63  LIG A   1      24.458  22.206  11.745  1.00 20.00    +0.066 H 
ATOM     64 H64  LIG A   1      24.558  23.937  13.836  1.00 20.00    +0.066 H 
ATOM     65 H65  LIG A   1      23.710  25.896  15.116  1.00 20.00    +0.063 H 
ATOM     66 H66  LIG A   1      22.726  27.573  16.561  1.00 20.00    +0.064 H 
ATOM     67 H67  LIG A   1      19.077  28.010  16.887  1.00 20.00    +0.160 HD
ATOM     68 H68  LIG A   1      19.964  29.137  18.564  1.00 20.00    +0.049 H 
ATOM     69 H69  LIG A   1      21.445  28.252  18.303  1.00 20.00    +0.049 H 
ATOM     70 H70  LIG A   1      22.009  30.596  18.127  1.00 20.00    +0.030 H 
ATOM     71 H71  LIG A   1      22.066  29.971  16.486  1.00 20.00    +0.030 H 
ATOM     72 H72  LIG A   1      20.939  32.074  16.381  1.00 20.00    +0.043 H 
ATOM     73 H73  LIG A   1      19.727  30.822  16.098  1.00 20.00    +0.043 H 
ATOM     74 H74  LIG A   1      20.265  32.298  18.601  1.00 20.00    +0.122 HD
ATOM     75 H75  LIG A   1      18.214  33.246  18.453  1.00 20.00    +0.043 H 
ATOM     76 H76  LIG A   1      18.950  33.449  16.874  1.00 20.00    +0.043 H 
ATOM     77 H77  LIG A   1      17.628  31.500  16.008  1.00 20.00    +0.028 H 
ATOM     78 H78  LIG A   1      16.617  32.769  16.674  1.00 20.00    +0.028 H 
ATOM     79 H79  LIG A   1      16.359  31.490  18.803  1.00 20.00    +0.028 H 
ATOM     80 H80  LIG A   1      17.430  30.232  18.200  1.00 20.00    +0.028 H 
ATOM     81 H81  LIG A   1      15.839  29.696  16.363  1.00 20.00    +0.043 H 
ATOM     82 H82  LIG A   1      15.155  29.474  17.971  1.00 20.00    +0.043 H 
ATOM     83 H83  LIG A   1      14.131  31.658  17.734  1.00 20.00    +0.118 HD
ATOM     84 H84  LIG A   1      14.676  31.764  16.203  1.00 20.00    +0.118 HD
ATOM     85 H85  LIG A   1      18.828  26.655  14.986  1.00 20.00    +0.064 H 
ATOM     86 H86  LIG A   1      19.814  24.972  13.524  1.00 20.00    +0.063 H 
ATOM     87 H87  LIG A   1      19.708  23.001  11.010  1.00 20.00    +0.063 H 
ATOM     88 H88  LIG A   1      18.563  21.938   9.140  1.00 20.00    +0.064 H 
ATOM     89 H89  LIG A   1      20.136  25.760  13.392  1.00 20.00    +0.118 HD
ATOM     90 H90  LIG A   1      20.549  24.922  14.730  1.00 20.00    +0.118 HD
ATOM     91 H91  LIG A   1      19.508  22.948  13.985  1.00 20.00    +0.043 H 
ATOM     92 H92  LIG A   1      18.389  24.312  13.968  1.00 20.00    +0.043 H 
ATOM     93 H93  LIG A   1      18.046  23.218  11.877  1.00 20.00    +0.029 H 
ATOM     94 H94  LIG A   1      18.941  24.679  11.511  1.00 20.00    +0.029 H 
ATOM     95 H95  LIG A   1      19.948  22.956  10.206  1.00 20.00    +0.043 H 
ATOM     96 H96  LIG A   1      21.097  23.262  11.509  1.00 20.00    +0.043 H 
ATOM     97 H97  LIG A   1      20.769  20.957  11.180  1.00 20.00    +0.118 HD
ATOM     98 H98  LIG A   1      19.148  21.066  11.328  1.00 20.00    +0.118 HD
ENDROOT
TORSDOF 0
                                                                                                     
ENDMDL
MODEL 2
REMARK VINA RESULT:    -9.239      3.549      5.745
REMARK INTER + INTRA:          -9.239
REMARK INTER:                  -9.239
REMARK INTRA:                   0.000
REMARK UNBOUND:                 0.000
ROOT
ATOM      1 N1   LIG A   1      12.248  10.069   3.243  1.00 20.00    -0.330 NA
ATOM      2 C2   LIG A   1      12.184  11.262   4.079  1.00 20.00    -0.008 C 
ATOM      3 C3   LIG A   1      13.316  12.231   3.739  1.00 20.00    -0.040 C 
ATOM      4 C4   LIG A   1      13.244  13.493   4.605  1.00 20.00    -0.039 C 
ATOM      5 C5   LIG A   1      14.322  14.521   4.249  1.00 20.00    -0.005 C 
ATOM      6 N6   LIG A   1      15.659  13.994   4.520  1.00 20.00    -0.317 NA
ATOM      7 C7   LIG A   1      16.698  14.954   4.137  1.00 20.00    -0.003 C 
ATOM      8 C8   LIG A   1      18.076  14.367   4.444  1.00 20.00    -0.023 C 
ATOM      9 C9   LIG A   1      19.216  15.256   3.944  1.00 20.00    +0.016 C 
ATOM     10 N10  LIG A   1      19.269  16.547   4.617  1.00 20.00    -0.385 NA
ATOM     11 C11  LIG A   1      19.689  16.712   5.930  1.00 20.00    +0.034 A 
ATOM     12 C12  LIG A   1      20.399  15.749   6.650  1.00 20.00    -0.038 A 
ATOM     13 C13  LIG A   1      20.864  16.002   7.950  1.00 20.00    -0.049 A 
ATOM     14 C14  LIG A   1      20.655  17.242   8.564  1.00 20.00    +0.017 A 
ATOM     15 C15  LIG A   1      21.156  17.506   9.909  1.00 20.00    +0.134 A 
ATOM     16 C16  LIG A   1      21.751  16.738  10.891  1.00 20.00    -0.015 A 
ATOM     17 C17  LIG A   1      22.026  17.607  11.978  1.00 20.00    -0.015 A 
ATOM     18 C18  LIG A   1      21.585  18.861  11.608  1.00 20.00    +0.134 A 
ATOM     19 C19  LIG A   1      21.586  20.177  12.242  1.00 20.00    +0.017 A 
ATOM     20 C20  LIG A   1      22.295  20.403  13.426  1.00 20.00    -0.049 A 
ATOM     21 C21  LIG A   1      22.310  21.669  14.032  1.00 20.00    -0.038 A 
ATOM     22 C22  LIG A   1      21.593  22.742  13.495  1.00 20.00    +0.034 A 
ATOM     23 N23  LIG A   1      21.623  24.036  14.003  1.00 20.00    -0.385 NA
ATOM     24 C24  LIG A   1      22.129  24.355  15.335  1.00 20.00    +0.016 C 
ATOM     25 C25  LIG A   1      23.615  24.720  15.284  1.00 20.00    -0.023 C 
ATOM     26 C26  LIG A   1      23.888  26.032  14.541  1.00 20.00    -0.003 C 
ATOM     27 N27  LIG A   1      23.377  27.183  15.299  1.00 20.00    -0.317 NA
ATOM     28 C28  LIG A   1      23.490  28.435  14.547  1.00 20.00    -0.005 C 
ATOM     29 C29  LIG A   1      22.461  28.585  13.418  1.00 20.00    -0.039 C 
ATOM     30 C30  LIG A   1      21.013  28.513  13.917  1.00 20.00    -0.040 C 
ATOM     31 C31  LIG A   1      19.975  28.606  12.796  1.00 20.00    -0.008 C 
ATOM     32 N32  LIG A   1      19.996  29.885  12.096  1.00 20.00    -0.330 NA
ATOM     33 C33  LIG A   1      20.908  22.515  12.295  1.00 20.00    -0.038 A 
ATOM     34 C34  LIG A   1      20.894  21.256  11.683  1.00 20.00    -0.049 A 
ATOM     35 O35  LIG A   1      21.049  18.795  10.352  1.00 20.00    -0.456 OA
ATOM     36 C36  LIG A   1      19.970  18.220   7.836  1.00 20.00    -0.049 A 
ATOM     37 C37  LIG A   1      19.505  17.960   6.540  1.00 20.00    -0.038 A 
ATOM     38 N38  LIG A   1      20.539  20.701  11.164  1.00 20.00    -0.330 NA
ATOM     39 C39  LIG A   1      19.282  20.709  10.418  1.00 20.00    -0.007 C 
ATOM     40 C40  LIG A   1      19.502  20.389   8.938  1.00 20.00    -0.029 C 
ATOM     41 C41  LIG A   1      19.854  18.925   8.667  1.00 20.00    -0.007 C 
ATOM     42 N42  LIG A   1      18.698  18.049   8.855  1.00 20.00    -0.330 NA
ATOM     43 H43  LIG A   1      12.219  10.342   2.260  1.00 20.00    +0.118 HD
ATOM     44 H44  LIG A   1      13.153   9.614   3.374  1.00 20.00    +0.118 HD
ATOM     45 H45  LIG A   1      12.245  10.963   5.131  1.00 20.00    +0.043 H 
ATOM     46 H46  LIG A   1      11.213  11.745   3.931  1.00 20.00    +0.043 H 
ATOM     47 H47  LIG A   1      13.256  12.513   2.680  1.00 20.00    +0.028 H 
ATOM     48 H48  LIG A   1      14.281  11.729   3.885  1.00 20.00    +0.028 H 
ATOM     49 H49  LIG A   1      12.261  13.965   4.474  1.00 20.00    +0.028 H 
ATOM     50 H50  LIG A   1      13.323  13.221   5.666  1.00 20.00    +0.028 H 
ATOM     51 H51  LIG A   1      14.151  15.428   4.842  1.00 20.00    +0.043 H 
ATOM     52 H52  LIG A   1      14.227  14.791   3.190  1.00 20.00    +0.043 H 
ATOM     53 H53  LIG A   1      15.744  13.784   5.517  1.00 20.00    +0.122 HD
ATOM     54 H54  LIG A   1      16.559  15.894   4.684  1.00 20.00    +0.043 H 
ATOM     55 H55  LIG A   1      16.623  15.168   3.064  1.00 20.00    +0.043 H 
ATOM     56 H56  LIG A   1      18.171  14.190   5.522  1.00 20.00    +0.030 H 
ATOM     57 H57  LIG A   1      18.170  13.390   3.953  1.00 20.00    +0.030 H 
ATOM     58 H58  LIG A   1      20.175  14.732   4.038  1.00 20.00    +0.049 H 
ATOM     59 H59  LIG A   1      19.085  15.440   2.871  1.00 20.00    +0.049 H 
ATOM     60 H60  LIG A   1      18.553  17.206   4.324  1.00 20.00    +0.160 HD
ATOM     61 H61  LIG A   1      20.616  14.777   6.219  1.00 20.00    +0.064 H 
ATOM     62 H62  LIG A   1      21.406  15.213   8.465  1.00 20.00    +0.063 H 
ATOM     63 H63  LIG A   1      21.965  15.681  10.835  1.00 20.00    +0.066 H 
ATOM     64 H64  LIG A   1      22.492  17.344  12.917  1.00 20.00    +0.066 H 
ATOM     65 H65  LIG A   1      22.869  19.604  13.890  1.00 20.00    +0.063 H 
ATOM     66 H66  LIG A   1      22.905  21.790  14.932  1.00 20.00    +0.064 H 
ATOM     67 H67  LIG A   1      20.804  24.582  13.749  1.00 20.00    +0.160 HD
ATOM     68 H68  LIG A   1      21.552  25.199  15.731  1.00 20.00    +0.049 H 
ATOM     69 H69  LIG A   1      21.959  23.529  16.035  1.00 20.00    +0.049 H 
ATOM     70 H70  LIG A   1      24.001  24.792  16.309  1.00 20.00    +0.030 H 
ATOM     71 H71  LIG A   1      24.182  23.922  14.793  1.00 20.00    +0.030 H 
ATOM     72 H72  LIG A   1      24.971  26.143  14.408  1.00 20.00    +0.043 H 
ATOM     73 H73  LIG A   1      23.442  25.979  13.542  1.00 20.00    +0.043 H 
ATOM     74 H74  LIG A   1      23.921  27.269  16.158  1.00 20.00    +0.122 HD
ATOM     75 H75  LIG A   1      23.344  29.262  15.252  1.00 20.00    +0.043 H 
ATOM     76 H76  LIG A   1      24.504  28.551  14.145  1.00 20.00    +0.043 H 
ATOM     77 H77  LIG A   1      22.626  27.825  12.646  1.00 20.00    +0.028 H 
ATOM     78 H78  LIG A   1      22.638  29.555  12.938  1.00 20.00    +0.028 H 
ATOM     79 H79  LIG A   1      20.839  29.311  14.651  1.00 20.00    +0.028 H 
ATOM     80 H80  LIG A   1      20.850  27.564  14.442  1.00 20.00    +0.028 H 
ATOM     81 H81  LIG A   1      20.127  27.797  12.073  1.00 20.00    +0.043 H 
ATOM     82 H82  LIG A   1      18.976  28.466  13.226  1.00 20.00    +0.043 H 
ATOM     83 H83  LIG A   1      19.934  30.647  12.771  1.00 20.00    +0.118 HD
ATOM     84 H84  LIG A   1      20.889  30.004  11.620  1.00 20.00    +0.118 HD
ATOM     85 H85  LIG A   1      20.378  23.331  11.809  1.00 20.00    +0.064 H 
ATOM     86 H86  LIG A   1      20.343  21.135  10.752  1.00 20.00    +0.063 H 
ATOM     87 H87  LIG A   1      19.795  19.204   8.264  1.00 20.00    +0.063 H 
ATOM     88 H88  LIG A   1      18.998  18.758   6.005  1.00 20.00    +0.064 H 
ATOM     89 H89  LIG A   1      21.138  21.455  10.833  1.00 20.00    +0.118 HD
ATOM     90 H90  LIG A   1      20.345  20.898  12.145  1.00 20.00    +0.118 HD
ATOM     91 H91  LIG A   1      18.584  19.998  10.871  1.00 20.00    +0.043 H 
ATOM     92 H92  LIG A   1      18.835  21.706  10.506  1.00 20.00    +0.043 H 
ATOM     93 H93  LIG A   1      18.597  20.658   8.378  1.00 20.00    +0.029 H 
ATOM     94 H94  LIG A   1      20.302  21.026   8.541  1.00 20.00    +0.029 H 
ATOM     95 H95  LIG A   1      20.198  18.825   7.632  1.00 20.00    +0.043 H 
ATOM     96 H96  LIG A   1      20.672  18.594   9.315  1.00 20.00    +0.043 H 
ATOM     97 H97  LIG A   1      18.982  17.084   8.685  1.00 20.00    +0.118 HD
ATOM     98 H98  LIG A   1      17.989  18.265   8.156  1.00 20.00    +0.118 HD
ENDROOT
TORSDOF 0
                                                                                                     
ENDMDL
MODEL 3
REMARK VINA RESULT:    -9.208      2.084      2.406
REMARK INTER + INTRA:          -9.208
REMARK INTER:                  -9.208
REMARK INTRA:                   0.000
REMARK UNBOUND:                 0.000
ROOT
ATOM      1 N1   LIG A   1      23.367  12.693   5.375  1.00 20.00    -0.330 NA
ATOM      2 C2   LIG A   1      22.677  13.202   6.555  1.00 20.00    -0.008 C 
ATOM      3 C3   LIG A   1      22.024  14.554   6.268  1.00 20.00    -0.040 C 
ATOM      4 C4   LIG A   1      21.285  15.085   7.502  1.00 20.00    -0.039 C 
ATOM      5 C5   LIG A   1      20.559  16.407   7.237  1.00 20.00    -0.005 C 
ATOM      6 N6   LIG A   1      21.510  17.473   6.920  1.00 20.00    -0.317 NA
ATOM      7 C7   LIG A   1      20.819  18.729   6.617  1.00 20.00    -0.003 C 
ATOM      8 C8   LIG A   1      21.849  19.816   6.300  1.00 20.00    -0.023 C 
ATOM      9 C9   LIG A   1      21.198  21.122   5.840  1.00 20.00    +0.016 C 
ATOM     10 N10  LIG A   1      20.389  21.750   6.875  1.00 20.00    -0.385 NA
ATOM     11 C11  LIG A   1      20.924  22.385   7.989  1.00 20.00    +0.034 A 
ATOM     12 C12  LIG A   1      22.260  22.777   8.099  1.00 20.00    -0.038 A 
ATOM     13 C13  LIG A   1      22.726  23.482   9.219  1.00 20.00    -0.049 A 
ATOM     14 C14  LIG A   1      21.861  23.844  10.257  1.00 20.00    +0.017 A 
ATOM     15 C15  LIG A   1      22.347  24.594  11.411  1.00 20.00    +0.134 A 
ATOM     16 C16  LIG A   1      23.593  24.991  11.855  1.00 20.00    -0.015 A 
ATOM     17 C17  LIG A   1      23.386  25.724  13.052  1.00 20.00    -0.015 A 
ATOM     18 C18  LIG A   1      22.025  25.738  13.280  1.00 20.00    +0.134 A 
ATOM     19 C19  LIG A   1      21.163  26.323  14.304  1.00 20.00    +0.017 A 
ATOM     20 C20  LIG A   1      21.673  27.227  15.242  1.00 20.00    -0.049 A 
ATOM     21 C21  LIG A   1      20.846  27.801  16.219  1.00 20.00    -0.038 A 
ATOM     22 C22  LIG A   1      19.491  27.471  16.313  1.00 20.00    +0.034 A 
ATOM     23 N23  LIG A   1      18.603  28.056  17.209  1.00 20.00    -0.385 NA
ATOM     24 C24  LIG A   1      19.038  28.830  18.368  1.00 20.00    +0.016 C 
ATOM     25 C25  LIG A   1      19.127  30.320  18.031  1.00 20.00    -0.023 C 
ATOM     26 C26  LIG A   1      17.763  30.956  17.744  1.00 20.00    -0.003 C 
ATOM     27 N27  LIG A   1      16.949  31.029  18.966  1.00 20.00    -0.317 NA
ATOM     28 C28  LIG A   1      15.587  31.494  18.696  1.00 20.00    -0.005 C 
ATOM     29 C29  LIG A   1      14.685  30.447  18.029  1.00 20.00    -0.039 C 
ATOM     30 C30  LIG A   1      14.544  29.165  18.858  1.00 20.00    -0.040 C 
ATOM     31 C31  LIG A   1      13.692  28.089  18.180  1.00 20.00    -0.008 C 
ATOM     32 N32  LIG A   1      12.303  28.489  17.992  1.00 20.00    -0.330 NA
ATOM     33 C33  LIG A   1      18.982  26.587  15.354  1.00 20.00    -0.038 A 
ATOM     34 C34  LIG A   1      19.801  26.014  14.373  1.00 20.00    -0.049 A 
ATOM     35 O35  LIG A   1      21.397  25.043  12.285  1.00 20.00    -0.456 OA
ATOM     36 C36  LIG A   1      20.515  23.479  10.138  1.00 20.00    -0.049 A 
ATOM     37 C37  LIG A   1      20.057  22.771   9.019  1.00 20.00    -0.038 A 
ATOM     38 N38  LIG A   1      19.957  25.407  13.816  1.00 20.00    -0.330 NA
ATOM     39 C39  LIG A   1      19.273  24.153  13.506  1.00 20.00    -0.007 C 
ATOM     40 C40  LIG A   1      18.985  24.023  12.009  1.00 20.00    -0.029 C 
ATOM     41 C41  LIG A   1      20.228  23.757  11.159  1.00 20.00    -0.007 C 
ATOM     42 N42  LIG A   1      20.731  22.396  11.348  1.00 20.00    -0.330 NA
ATOM     43 H43  LIG A   1      22.708  12.629   4.599  1.00 20.00    +0.118 HD
ATOM     44 H44  LIG A   1      24.072  13.370   5.079  1.00 20.00    +0.118 HD
ATOM     45 H45  LIG A   1      23.397  13.295   7.375  1.00 20.00    +0.043 H 
ATOM     46 H46  LIG A   1      21.921  12.472   6.864  1.00 20.00    +0.043 H 
ATOM     47 H47  LIG A   1      21.315  14.453   5.436  1.00 20.00    +0.028 H 
ATOM     48 H48  LIG A   1      22.793  15.270   5.953  1.00 20.00    +0.028 H 
ATOM     49 H49  LIG A   1      20.543  14.343   7.825  1.00 20.00    +0.028 H 
ATOM     50 H50  LIG A   1      21.991  15.206   8.334  1.00 20.00    +0.028 H 
ATOM     51 H51  LIG A   1      19.982  16.676   8.130  1.00 20.00    +0.043 H 
ATOM     52 H52  LIG A   1      19.852  16.270   6.410  1.00 20.00    +0.043 H 
ATOM     53 H53  LIG A   1      22.137  17.614   7.714  1.00 20.00    +0.122 HD
ATOM     54 H54  LIG A   1      20.204  19.033   7.472  1.00 20.00    +0.043 H 
ATOM     55 H55  LIG A   1      20.159  18.588   5.753  1.00 20.00    +0.043 H 
ATOM     56 H56  LIG A   1      22.485  19.990   7.176  1.00 20.00    +0.030 H 
ATOM     57 H57  LIG A   1      22.507  19.465   5.495  1.00 20.00    +0.030 H 
ATOM     58 H58  LIG A   1      21.963  21.816   5.472  1.00 20.00    +0.049 H 
ATOM     59 H59  LIG A   1      20.548  20.917   4.981  1.00 20.00    +0.049 H 
ATOM     60 H60  LIG A   1      19.494  21.300   7.044  1.00 20.00    +0.160 HD
ATOM     61 H61  LIG A   1      22.974  22.549   7.314  1.00 20.00    +0.064 H 
ATOM     62 H62  LIG A   1      23.777  23.756   9.253  1.00 20.00    +0.063 H 
ATOM     63 H63  LIG A   1      24.539  24.783  11.378  1.00 20.00    +0.066 H 
ATOM     64 H64  LIG A   1      24.143  26.187  13.669  1.00 20.00    +0.066 H 
ATOM     65 H65  LIG A   1      22.720  27.518  15.218  1.00 20.00    +0.063 H 
ATOM     66 H66  LIG A   1      21.293  28.520  16.899  1.00 20.00    +0.064 H 
ATOM     67 H67  LIG A   1      17.791  27.475  17.402  1.00 20.00    +0.160 HD
ATOM     68 H68  LIG A   1      18.316  28.674  19.178  1.00 20.00    +0.049 H 
ATOM     69 H69  LIG A   1      19.995  28.464  18.756  1.00 20.00    +0.049 H 
ATOM     70 H70  LIG A   1      19.611  30.847  18.863  1.00 20.00    +0.030 H 
ATOM     71 H71  LIG A   1      19.768  30.470  17.155  1.00 20.00    +0.030 H 
ATOM     72 H72  LIG A   1      17.922  31.971  17.359  1.00 20.00    +0.043 H 
ATOM     73 H73  LIG A   1      17.258  30.385  16.959  1.00 20.00    +0.043 H 
ATOM     74 H74  LIG A   1      17.395  31.682  19.611  1.00 20.00    +0.122 HD
ATOM     75 H75  LIG A   1      15.133  31.772  19.656  1.00 20.00    +0.043 H 
ATOM     76 H76  LIG A   1      15.606  32.409  18.091  1.00 20.00    +0.043 H 
ATOM     77 H77  LIG A   1      15.059  30.203  17.028  1.00 20.00    +0.028 H 
ATOM     78 H78  LIG A   1      13.699  30.905  17.886  1.00 20.00    +0.028 H 
ATOM     79 H79  LIG A   1      14.120  29.409  19.840  1.00 20.00    +0.028 H 
ATOM     80 H80  LIG A   1      15.535  28.735  19.044  1.00 20.00    +0.028 H 
ATOM     81 H81  LIG A   1      14.125  27.821  17.209  1.00 20.00    +0.043 H 
ATOM     82 H82  LIG A   1      13.709  27.184  18.797  1.00 20.00    +0.043 H 
ATOM     83 H83  LIG A   1      11.916  28.814  18.878  1.00 20.00    +0.118 HD
ATOM     84 H84  LIG A   1      12.254  29.283  17.355  1.00 20.00    +0.118 HD
ATOM     85 H85  LIG A   1      17.923  26.338  15.352  1.00 20.00    +0.064 H 
ATOM     86 H86  LIG A   1      19.353  25.331  13.654  1.00 20.00    +0.063 H 
ATOM     87 H87  LIG A   1      19.802  23.750  10.912  1.00 20.00    +0.063 H 
ATOM     88 H88  LIG A   1      18.999  22.530   8.961  1.00 20.00    +0.064 H 
ATOM     89 H89  LIG A   1      19.339  26.192  13.613  1.00 20.00    +0.118 HD
ATOM     90 H90  LIG A   1      20.147  25.443  14.817  1.00 20.00    +0.118 HD
ATOM     91 H91  LIG A   1      19.877  23.310  13.861  1.00 20.00    +0.043 H 
ATOM     92 H92  LIG A   1      18.327  24.129  14.057  1.00 20.00    +0.043 H 
ATOM     93 H93  LIG A   1      18.257  23.215  11.856  1.00 20.00    +0.029 H 
ATOM     94 H94  LIG A   1      18.498  24.937  11.650  1.00 20.00    +0.029 H 
ATOM     95 H95  LIG A   1      19.975  23.887  10.101  1.00 20.00    +0.043 H 
ATOM     96 H96  LIG A   1      21.022  24.474  11.393  1.00 20.00    +0.043 H 
ATOM     97 H97  LIG A   1      21.569  22.270  10.782  1.00 20.00    +0.118 HD
ATOM     98 H98  LIG A   1      20.046  21.727  10.998  1.00 20.00    +0.118 HD
ENDROOT
TORSDOF 0
                                                                                                     
ENDMDL
MODEL 4
REMARK VINA RESULT:    -9.108      2.361     14.056
REMARK INTER + INTRA:          -9.108
REMARK INTER:                  -9.108
REMARK INTRA:                   0.000
REMARK UNBOUND:                 0.000
ROOT
ATOM      1 N1   LIG A   1      16.304  32.193  16.650  1.00 20.00    -0.330 NA
ATOM      2 C2   LIG A   1      15.819  31.114  15.796  1.00 20.00    -0.008 C 
ATOM      3 C3   LIG A   1      16.605  29.826  16.041  1.00 20.00    -0.040 C 
ATOM      4 C4   LIG A   1      16.089  28.686  15.156  1.00 20.00    -0.039 C 
ATOM      5 C5   LIG A   1      16.806  27.359  15.418  1.00 20.00    -0.005 C 
ATOM      6 N6   LIG A   1      18.223  27.450  15.069  1.00 20.00    -0.317 NA
ATOM      7 C7   LIG A   1      18.926  26.198  15.362  1.00 20.00    -0.003 C 
ATOM      8 C8   LIG A   1      20.400  26.335  14.975  1.00 20.00    -0.023 C 
ATOM      9 C9   LIG A   1      21.228  25.114  15.380  1.00 20.00    +0.016 C 
ATOM     10 N10  LIG A   1      20.832  23.900  14.680  1.00 20.00    -0.385 NA
ATOM     11 C11  LIG A   1      21.103  23.664  13.339  1.00 20.00    +0.034 A 
ATOM     12 C12  LIG A   1      22.038  24.384  12.592  1.00 20.00    -0.038 A 
ATOM     13 C13  LIG A   1      22.324  24.051  11.259  1.00 20.00    -0.049 A 
ATOM     14 C14  LIG A   1      21.700  22.965  10.636  1.00 20.00    +0.017 A 
ATOM     15 C15  LIG A   1      22.014  22.611   9.255  1.00 20.00    +0.134 A 
ATOM     16 C16  LIG A   1      22.764  23.192   8.251  1.00 20.00    -0.015 A 
ATOM     17 C17  LIG A   1      22.688  22.325   7.131  1.00 20.00    -0.015 A 
ATOM     18 C18  LIG A   1      21.896  21.258   7.505  1.00 20.00    +0.134 A 
ATOM     19 C19  LIG A   1      21.445  20.035   6.846  1.00 20.00    +0.017 A 
ATOM     20 C20  LIG A   1      21.978  19.646   5.612  1.00 20.00    -0.049 A 
ATOM     21 C21  LIG A   1      21.558  18.464   4.981  1.00 20.00    -0.038 A 
ATOM     22 C22  LIG A   1      20.571  17.650   5.543  1.00 20.00    +0.034 A 
ATOM     23 N23  LIG A   1      20.162  16.433   5.009  1.00 20.00    -0.385 NA
ATOM     24 C24  LIG A   1      20.465  16.025   3.640  1.00 20.00    +0.016 C 
ATOM     25 C25  LIG A   1      21.760  15.210   3.584  1.00 20.00    -0.023 C 
ATOM     26 C26  LIG A   1      21.647  13.851   4.281  1.00 20.00    -0.003 C 
ATOM     27 N27  LIG A   1      20.757  12.949   3.536  1.00 20.00    -0.317 NA
ATOM     28 C28  LIG A   1      20.512  11.696   4.253  1.00 20.00    -0.005 C 
ATOM     29 C29  LIG A   1      19.555  11.831   5.445  1.00 20.00    -0.039 C 
ATOM     30 C30  LIG A   1      18.177  12.373   5.046  1.00 20.00    -0.040 C 
ATOM     31 C31  LIG A   1      17.228  12.566   6.232  1.00 20.00    -0.008 C 
ATOM     32 N32  LIG A   1      16.885  11.318   6.903  1.00 20.00    -0.330 NA
ATOM     33 C33  LIG A   1      20.063  18.031   6.791  1.00 20.00    -0.038 A 
ATOM     34 C34  LIG A   1      20.481  19.206   7.428  1.00 20.00    -0.049 A 
ATOM     35 O35  LIG A   1      21.481  21.439   8.794  1.00 20.00    -0.456 OA
ATOM     36 C36  LIG A   1      20.784  22.222  11.388  1.00 20.00    -0.049 A 
ATOM     37 C37  LIG A   1      20.500  22.563  12.718  1.00 20.00    -0.038 A 
ATOM     38 N38  LIG A   1      20.351  19.823   7.980  1.00 20.00    -0.330 NA
ATOM     39 C39  LIG A   1      19.200  20.179   8.809  1.00 20.00    -0.007 C 
ATOM     40 C40  LIG A   1      19.594  20.355  10.276  1.00 20.00    -0.029 C 
ATOM     41 C41  LIG A   1      20.404  21.623  10.553  1.00 20.00    -0.007 C 
ATOM     42 N42  LIG A   1      19.575  22.824  10.460  1.00 20.00    -0.330 NA
ATOM     43 H43  LIG A   1      16.247  31.903  17.627  1.00 20.00    +0.118 HD
ATOM     44 H44  LIG A   1      17.297  32.346  16.467  1.00 20.00    +0.118 HD
ATOM     45 H45  LIG A   1      15.911  31.421  14.749  1.00 20.00    +0.043 H 
ATOM     46 H46  LIG A   1      14.756  30.954  15.999  1.00 20.00    +0.043 H 
ATOM     47 H47  LIG A   1      16.519  29.535  17.095  1.00 20.00    +0.028 H 
ATOM     48 H48  LIG A   1      17.669  30.006  15.840  1.00 20.00    +0.028 H 
ATOM     49 H49  LIG A   1      15.017  28.541  15.343  1.00 20.00    +0.028 H 
ATOM     50 H50  LIG A   1      16.189  28.962  14.098  1.00 20.00    +0.028 H 
ATOM     51 H51  LIG A   1      16.324  26.575  14.820  1.00 20.00    +0.043 H 
ATOM     52 H52  LIG A   1      16.692  27.090  16.475  1.00 20.00    +0.043 H 
ATOM     53 H53  LIG A   1      18.314  27.663  14.073  1.00 20.00    +0.122 HD
ATOM     54 H54  LIG A   1      18.467  25.372  14.808  1.00 20.00    +0.043 H 
ATOM     55 H55  LIG A   1      18.850  25.975  16.434  1.00 20.00    +0.043 H 
ATOM     56 H56  LIG A   1      20.484  26.517  13.898  1.00 20.00    +0.030 H 
ATOM     57 H57  LIG A   1      20.825  27.213  15.478  1.00 20.00    +0.030 H 
ATOM     58 H58  LIG A   1      22.295  25.314  15.233  1.00 20.00    +0.049 H 
ATOM     59 H59  LIG A   1      21.107  24.938  16.456  1.00 20.00    +0.049 H 
ATOM     60 H60  LIG A   1      19.963  23.488  15.006  1.00 20.00    +0.160 HD
ATOM     61 H61  LIG A   1      22.575  25.221  13.027  1.00 20.00    +0.064 H 
ATOM     62 H62  LIG A   1      23.057  24.650  10.725  1.00 20.00    +0.063 H 
ATOM     63 H63  LIG A   1      23.303  24.125   8.314  1.00 20.00    +0.066 H 
ATOM     64 H64  LIG A   1      23.159  22.466   6.168  1.00 20.00    +0.066 H 
ATOM     65 H65  LIG A   1      22.747  20.243   5.127  1.00 20.00    +0.063 H 
ATOM     66 H66  LIG A   1      22.032  18.199   4.042  1.00 20.00    +0.064 H 
ATOM     67 H67  LIG A   1      19.228  16.161   5.306  1.00 20.00    +0.160 HD
ATOM     68 H68  LIG A   1      19.629  15.422   3.266  1.00 20.00    +0.049 H 
ATOM     69 H69  LIG A   1      20.524  16.890   2.970  1.00 20.00    +0.049 H 
ATOM     70 H70  LIG A   1      22.045  15.063   2.535  1.00 20.00    +0.030 H 
ATOM     71 H71  LIG A   1      22.577  15.771   4.052  1.00 20.00    +0.030 H 
ATOM     72 H72  LIG A   1      22.646  13.400   4.339  1.00 20.00    +0.043 H 
ATOM     73 H73  LIG A   1      21.298  14.001   5.308  1.00 20.00    +0.043 H 
ATOM     74 H74  LIG A   1      21.196  12.732   2.641  1.00 20.00    +0.122 HD
ATOM     75 H75  LIG A   1      20.072  10.985   3.543  1.00 20.00    +0.043 H 
ATOM     76 H76  LIG A   1      21.458  11.252   4.585  1.00 20.00    +0.043 H 
ATOM     77 H77  LIG A   1      19.995  12.469   6.219  1.00 20.00    +0.028 H 
ATOM     78 H78  LIG A   1      19.444  10.836   5.893  1.00 20.00    +0.028 H 
ATOM     79 H79  LIG A   1      17.718  11.701   4.309  1.00 20.00    +0.028 H 
ATOM     80 H80  LIG A   1      18.292  13.346   4.552  1.00 20.00    +0.028 H 
ATOM     81 H81  LIG A   1      17.669  13.257   6.960  1.00 20.00    +0.043 H 
ATOM     82 H82  LIG A   1      16.302  13.029   5.872  1.00 20.00    +0.043 H 
ATOM     83 H83  LIG A   1      16.547  10.642   6.218  1.00 20.00    +0.118 HD
ATOM     84 H84  LIG A   1      17.721  10.906   7.316  1.00 20.00    +0.118 HD
ATOM     85 H85  LIG A   1      19.330  17.405   7.295  1.00 20.00    +0.064 H 
ATOM     86 H86  LIG A   1      20.051  19.457   8.396  1.00 20.00    +0.063 H 
ATOM     87 H87  LIG A   1      20.284  21.361  10.953  1.00 20.00    +0.063 H 
ATOM     88 H88  LIG A   1      19.798  21.943  13.269  1.00 20.00    +0.064 H 
ATOM     89 H89  LIG A   1      20.699  18.907   8.256  1.00 20.00    +0.118 HD
ATOM     90 H90  LIG A   1      20.048  19.736   7.011  1.00 20.00    +0.118 HD
ATOM     91 H91  LIG A   1      18.737  21.092   8.418  1.00 20.00    +0.043 H 
ATOM     92 H92  LIG A   1      18.456  19.378   8.730  1.00 20.00    +0.043 H 
ATOM     93 H93  LIG A   1      18.683  20.361  10.891  1.00 20.00    +0.029 H 
ATOM     94 H94  LIG A   1      20.173  19.484  10.606  1.00 20.00    +0.029 H 
ATOM     95 H95  LIG A   1      20.821  21.568  11.565  1.00 20.00    +0.043 H 
ATOM     96 H96  LIG A   1      21.246  21.707   9.858  1.00 20.00    +0.043 H 
ATOM     97 H97  LIG A   1      20.158  23.643  10.630  1.00 20.00    +0.118 HD
ATOM     98 H98  LIG A   1      18.875  22.814  11.201  1.00 20.00    +0.118 HD
ENDROOT
TORSDOF 0
                                                                                                     
ENDMDL
MODEL 5
REMARK VINA RESULT:    -8.976      7.516     12.916
REMARK INTER + INTRA:          -8.976
REMARK INTER:                  -8.976
REMARK INTRA:                   0.000
REMARK UNBOUND:                 0.000
ROOT
ATOM      1 N1   LIG A   1      26.700  23.398  16.445  1.00 20.00    -0.330 NA
ATOM      2 C2   LIG A   1      25.325  23.158  16.021  1.00 20.00    -0.008 C 
ATOM      3 C3   LIG A   1      24.602  24.474  15.736  1.00 20.00    -0.040 C 
ATOM      4 C4   LIG A   1      23.161  24.226  15.276  1.00 20.00    -0.039 C 
ATOM      5 C5   LIG A   1      22.421  25.517  14.915  1.00 20.00    -0.005 C 
ATOM      6 N6   LIG A   1      22.264  26.377  16.088  1.00 20.00    -0.317 NA
ATOM      7 C7   LIG A   1      21.600  27.636  15.741  1.00 20.00    -0.003 C 
ATOM      8 C8   LIG A   1      21.449  28.498  16.995  1.00 20.00    -0.023 C 
ATOM      9 C9   LIG A   1      20.887  29.888  16.687  1.00 20.00    +0.016 C 
ATOM     10 N10  LIG A   1      19.527  29.849  16.168  1.00 20.00    -0.385 NA
ATOM     11 C11  LIG A   1      18.416  29.551  16.947  1.00 20.00    +0.034 A 
ATOM     12 C12  LIG A   1      18.414  29.567  18.343  1.00 20.00    -0.038 A 
ATOM     13 C13  LIG A   1      17.240  29.330  19.076  1.00 20.00    -0.049 A 
ATOM     14 C14  LIG A   1      16.021  29.095  18.431  1.00 20.00    +0.017 A 
ATOM     15 C15  LIG A   1      14.800  28.867  19.199  1.00 20.00    +0.134 A 
ATOM     16 C16  LIG A   1      14.514  28.692  20.538  1.00 20.00    -0.015 A 
ATOM     17 C17  LIG A   1      13.108  28.536  20.639  1.00 20.00    -0.015 A 
ATOM     18 C18  LIG A   1      12.604  28.622  19.357  1.00 20.00    +0.134 A 
ATOM     19 C19  LIG A   1      11.266  28.566  18.775  1.00 20.00    +0.017 A 
ATOM     20 C20  LIG A   1      10.128  28.587  19.588  1.00 20.00    -0.049 A 
ATOM     21 C21  LIG A   1       8.839  28.547  19.033  1.00 20.00    -0.038 A 
ATOM     22 C22  LIG A   1       8.643  28.453  17.653  1.00 20.00    +0.034 A 
ATOM     23 N23  LIG A   1       7.398  28.482  17.035  1.00 20.00    -0.385 NA
ATOM     24 C24  LIG A   1       6.147  28.277  17.759  1.00 20.00    +0.016 C 
ATOM     25 C25  LIG A   1       5.555  29.611  18.220  1.00 20.00    -0.023 C 
ATOM     26 C26  LIG A   1       5.085  30.495  17.060  1.00 20.00    -0.003 C 
ATOM     27 N27  LIG A   1       3.905  29.916  16.402  1.00 20.00    -0.317 NA
ATOM     28 C28  LIG A   1       3.522  30.658  15.199  1.00 20.00    -0.005 C 
ATOM     29 C29  LIG A   1       4.443  30.422  13.995  1.00 20.00    -0.039 C 
ATOM     30 C30  LIG A   1       4.519  28.947  13.582  1.00 20.00    -0.040 C 
ATOM     31 C31  LIG A   1       5.477  28.687  12.417  1.00 20.00    -0.008 C 
ATOM     32 N32  LIG A   1       5.064  29.332  11.176  1.00 20.00    -0.330 NA
ATOM     33 C33  LIG A   1       9.786  28.461  16.844  1.00 20.00    -0.038 A 
ATOM     34 C34  LIG A   1      11.075  28.506  17.391  1.00 20.00    -0.049 A 
ATOM     35 O35  LIG A   1      13.637  28.816  18.483  1.00 20.00    -0.456 OA
ATOM     36 C36  LIG A   1      16.012  29.107  17.033  1.00 20.00    -0.049 A 
ATOM     37 C37  LIG A   1      17.188  29.340  16.307  1.00 20.00    -0.038 A 
ATOM     38 N38  LIG A   1      11.899  28.366  17.329  1.00 20.00    -0.330 NA
ATOM     39 C39  LIG A   1      12.716  27.712  16.308  1.00 20.00    -0.007 C 
ATOM     40 C40  LIG A   1      13.885  28.596  15.870  1.00 20.00    -0.029 C 
ATOM     41 C41  LIG A   1      14.991  28.725  16.919  1.00 20.00    -0.007 C 
ATOM     42 N42  LIG A   1      15.760  27.488  17.048  1.00 20.00    -0.330 NA
ATOM     43 H43  LIG A   1      27.185  23.940  15.730  1.00 20.00    +0.118 HD
ATOM     44 H44  LIG A   1      26.697  23.986  17.279  1.00 20.00    +0.118 HD
ATOM     45 H45  LIG A   1      24.803  22.601  16.806  1.00 20.00    +0.043 H 
ATOM     46 H46  LIG A   1      25.337  22.529  15.125  1.00 20.00    +0.043 H 
ATOM     47 H47  LIG A   1      25.140  25.031  14.959  1.00 20.00    +0.028 H 
ATOM     48 H48  LIG A   1      24.605  25.094  16.641  1.00 20.00    +0.028 H 
ATOM     49 H49  LIG A   1      23.172  23.577  14.390  1.00 20.00    +0.028 H 
ATOM     50 H50  LIG A   1      22.610  23.685  16.056  1.00 20.00    +0.028 H 
ATOM     51 H51  LIG A   1      21.436  25.256  14.510  1.00 20.00    +0.043 H 
ATOM     52 H52  LIG A   1      22.977  26.044  14.130  1.00 20.00    +0.043 H 
ATOM     53 H53  LIG A   1      21.712  25.887  16.795  1.00 20.00    +0.122 HD
ATOM     54 H54  LIG A   1      20.615  27.432  15.305  1.00 20.00    +0.043 H 
ATOM     55 H55  LIG A   1      22.198  28.175  14.997  1.00 20.00    +0.043 H 
ATOM     56 H56  LIG A   1      20.817  27.981  17.726  1.00 20.00    +0.030 H 
ATOM     57 H57  LIG A   1      22.433  28.629  17.464  1.00 20.00    +0.030 H 
ATOM     58 H58  LIG A   1      20.944  30.525  17.576  1.00 20.00    +0.049 H 
ATOM     59 H59  LIG A   1      21.521  30.373  15.935  1.00 20.00    +0.049 H 
ATOM     60 H60  LIG A   1      19.451  29.543  15.202  1.00 20.00    +0.160 HD
ATOM     61 H61  LIG A   1      19.323  29.769  18.900  1.00 20.00    +0.064 H 
ATOM     62 H62  LIG A   1      17.299  29.349  20.161  1.00 20.00    +0.063 H 
ATOM     63 H63  LIG A   1      15.228  28.680  21.349  1.00 20.00    +0.066 H 
ATOM     64 H64  LIG A   1      12.535  28.382  21.542  1.00 20.00    +0.066 H 
ATOM     65 H65  LIG A   1      10.220  28.657  20.669  1.00 20.00    +0.063 H 
ATOM     66 H66  LIG A   1       7.995  28.599  19.714  1.00 20.00    +0.064 H 
ATOM     67 H67  LIG A   1       7.399  28.047  16.115  1.00 20.00    +0.160 HD
ATOM     68 H68  LIG A   1       5.441  27.767  17.093  1.00 20.00    +0.049 H 
ATOM     69 H69  LIG A   1       6.285  27.601  18.611  1.00 20.00    +0.049 H 
ATOM     70 H70  LIG A   1       4.713  29.415  18.897  1.00 20.00    +0.030 H 
ATOM     71 H71  LIG A   1       6.296  30.171  18.801  1.00 20.00    +0.030 H 
ATOM     72 H72  LIG A   1       4.825  31.485  17.454  1.00 20.00    +0.043 H 
ATOM     73 H73  LIG A   1       5.911  30.631  16.355  1.00 20.00    +0.043 H 
ATOM     74 H74  LIG A   1       3.126  29.939  17.061  1.00 20.00    +0.122 HD
ATOM     75 H75  LIG A   1       2.509  30.343  14.920  1.00 20.00    +0.043 H 
ATOM     76 H76  LIG A   1       3.459  31.732  15.414  1.00 20.00    +0.043 H 
ATOM     77 H77  LIG A   1       5.450  30.802  14.202  1.00 20.00    +0.028 H 
ATOM     78 H78  LIG A   1       4.055  31.019  13.160  1.00 20.00    +0.028 H 
ATOM     79 H79  LIG A   1       3.515  28.587  13.324  1.00 20.00    +0.028 H 
ATOM     80 H80  LIG A   1       4.859  28.343  14.432  1.00 20.00    +0.028 H 
ATOM     81 H81  LIG A   1       6.488  29.021  12.677  1.00 20.00    +0.043 H 
ATOM     82 H82  LIG A   1       5.533  27.606  12.240  1.00 20.00    +0.043 H 
ATOM     83 H83  LIG A   1       4.096  29.088  10.969  1.00 20.00    +0.118 HD
ATOM     84 H84  LIG A   1       5.080  30.345  11.291  1.00 20.00    +0.118 HD
ATOM     85 H85  LIG A   1       9.686  28.441  15.761  1.00 20.00    +0.064 H 
ATOM     86 H86  LIG A   1      11.928  28.506  16.716  1.00 20.00    +0.063 H 
ATOM     87 H87  LIG A   1      15.086  28.943  16.487  1.00 20.00    +0.063 H 
ATOM     88 H88  LIG A   1      17.127  29.362  15.223  1.00 20.00    +0.064 H 
ATOM     89 H89  LIG A   1      11.452  29.191  16.933  1.00 20.00    +0.118 HD
ATOM     90 H90  LIG A   1      11.146  27.736  17.606  1.00 20.00    +0.118 HD
ATOM     91 H91  LIG A   1      13.076  26.750  16.689  1.00 20.00    +0.043 H 
ATOM     92 H92  LIG A   1      12.081  27.501  15.441  1.00 20.00    +0.043 H 
ATOM     93 H93  LIG A   1      14.307  28.192  14.940  1.00 20.00    +0.029 H 
ATOM     94 H94  LIG A   1      13.513  29.597  15.620  1.00 20.00    +0.029 H 
ATOM     95 H95  LIG A   1      15.675  29.527  16.622  1.00 20.00    +0.043 H 
ATOM     96 H96  LIG A   1      14.574  28.999  17.894  1.00 20.00    +0.043 H 
ATOM     97 H97  LIG A   1      16.469  27.611  17.770  1.00 20.00    +0.118 HD
ATOM     98 H98  LIG A   1      16.263  27.307  16.181  1.00 20.00    +0.118 HD
ENDROOT
TORSDOF 0
                                                                                                     
ENDMDL
MODEL 6
REMARK VINA RESULT:    -8.864      7.373     18.000
REMARK INTER + INTRA:          -8.864
REMARK INTER:                  -8.864
REMARK INTRA:                   0.000
REMARK UNBOUND:                 0.000
ROOT
ATOM      1 N1   LIG A   1      23.580  22.824  12.465  1.00 20.00    -0.330 NA
ATOM      2 C2   LIG A   1      22.634  22.748  11.358  1.00 20.00    -0.008 C 
ATOM      3 C3   LIG A   1      21.638  21.606  11.565  1.00 20.00    -0.040 C 
ATOM      4 C4   LIG A   1      20.632  21.532  10.411  1.00 20.00    -0.039 C 
ATOM      5 C5   LIG A   1      19.575  20.444  10.612  1.00 20.00    -0.005 C 
ATOM      6 N6   LIG A   1      20.186  19.114  10.621  1.00 20.00    -0.317 NA
ATOM      7 C7   LIG A   1      19.186  18.071  10.863  1.00 20.00    -0.003 C 
ATOM      8 C8   LIG A   1      19.865  16.700  10.856  1.00 20.00    -0.023 C 
ATOM      9 C9   LIG A   1      18.907  15.570  11.237  1.00 20.00    +0.016 C 
ATOM     10 N10  LIG A   1      17.829  15.389  10.276  1.00 20.00    -0.385 NA
ATOM     11 C11  LIG A   1      18.008  14.837   9.015  1.00 20.00    +0.034 A 
ATOM     12 C12  LIG A   1      19.139  14.111   8.633  1.00 20.00    -0.038 A 
ATOM     13 C13  LIG A   1      19.232  13.513   7.367  1.00 20.00    -0.049 A 
ATOM     14 C14  LIG A   1      18.181  13.600   6.448  1.00 20.00    +0.017 A 
ATOM     15 C15  LIG A   1      18.275  12.960   5.138  1.00 20.00    +0.134 A 
ATOM     16 C16  LIG A   1      19.279  12.313   4.445  1.00 20.00    -0.015 A 
ATOM     17 C17  LIG A   1      18.718  11.893   3.212  1.00 20.00    -0.015 A 
ATOM     18 C18  LIG A   1      17.401  12.304   3.213  1.00 20.00    +0.134 A 
ATOM     19 C19  LIG A   1      16.287  12.177   2.277  1.00 20.00    +0.017 A 
ATOM     20 C20  LIG A   1      16.382  11.347   1.154  1.00 20.00    -0.049 A 
ATOM     21 C21  LIG A   1      15.310  11.212   0.259  1.00 20.00    -0.038 A 
ATOM     22 C22  LIG A   1      14.119  11.922   0.436  1.00 20.00    +0.034 A 
ATOM     23 N23  LIG A   1      12.995  11.779  -0.370  1.00 20.00    -0.385 NA
ATOM     24 C24  LIG A   1      13.033  11.133  -1.679  1.00 20.00    +0.016 C 
ATOM     25 C25  LIG A   1      12.703   9.642  -1.564  1.00 20.00    -0.023 C 
ATOM     26 C26  LIG A   1      11.254   9.376  -1.143  1.00 20.00    -0.003 C 
ATOM     27 N27  LIG A   1      10.318   9.754  -2.212  1.00 20.00    -0.317 NA
ATOM     28 C28  LIG A   1       8.921   9.651  -1.785  1.00 20.00    -0.005 C 
ATOM     29 C29  LIG A   1       8.467  10.774  -0.843  1.00 20.00    -0.039 C 
ATOM     30 C30  LIG A   1       8.626  12.170  -1.458  1.00 20.00    -0.040 C 
ATOM     31 C31  LIG A   1       8.229  13.304  -0.510  1.00 20.00    -0.008 C 
ATOM     32 N32  LIG A   1       6.816  13.286  -0.149  1.00 20.00    -0.330 NA
ATOM     33 C33  LIG A   1      14.020  12.728   1.577  1.00 20.00    -0.038 A 
ATOM     34 C34  LIG A   1      15.085  12.864   2.476  1.00 20.00    -0.049 A 
ATOM     35 O35  LIG A   1      17.137  12.959   4.382  1.00 20.00    -0.456 OA
ATOM     36 C36  LIG A   1      17.035  14.302   6.835  1.00 20.00    -0.049 A 
ATOM     37 C37  LIG A   1      16.950  14.900   8.100  1.00 20.00    -0.038 A 
ATOM     38 N38  LIG A   1      15.483  13.294   3.076  1.00 20.00    -0.330 NA
ATOM     39 C39  LIG A   1      15.257  14.614   3.661  1.00 20.00    -0.007 C 
ATOM     40 C40  LIG A   1      15.201  14.553   5.188  1.00 20.00    -0.029 C 
ATOM     41 C41  LIG A   1      16.558  14.302   5.848  1.00 20.00    -0.007 C 
ATOM     42 N42  LIG A   1      17.425  15.477   5.763  1.00 20.00    -0.330 NA
ATOM     43 H43  LIG A   1      23.069  22.932  13.341  1.00 20.00    +0.118 HD
ATOM     44 H44  LIG A   1      24.076  21.934  12.546  1.00 20.00    +0.118 HD
ATOM     45 H45  LIG A   1      23.189  22.602  10.425  1.00 20.00    +0.043 H 
ATOM     46 H46  LIG A   1      22.105  23.703  11.279  1.00 20.00    +0.043 H 
ATOM     47 H47  LIG A   1      21.098  21.753  12.509  1.00 20.00    +0.028 H 
ATOM     48 H48  LIG A   1      22.185  20.658  11.649  1.00 20.00    +0.028 H 
ATOM     49 H49  LIG A   1      20.119  22.498  10.318  1.00 20.00    +0.028 H 
ATOM     50 H50  LIG A   1      21.164  21.367   9.464  1.00 20.00    +0.028 H 
ATOM     51 H51  LIG A   1      18.842  20.511   9.800  1.00 20.00    +0.043 H 
ATOM     52 H52  LIG A   1      19.046  20.625  11.556  1.00 20.00    +0.043 H 
ATOM     53 H53  LIG A   1      20.642  18.945   9.722  1.00 20.00    +0.122 HD
ATOM     54 H54  LIG A   1      18.411  18.109  10.089  1.00 20.00    +0.043 H 
ATOM     55 H55  LIG A   1      18.708  18.236  11.836  1.00 20.00    +0.043 H 
ATOM     56 H56  LIG A   1      20.310  16.512   9.872  1.00 20.00    +0.030 H 
ATOM     57 H57  LIG A   1      20.690  16.702  11.580  1.00 20.00    +0.030 H 
ATOM     58 H58  LIG A   1      19.462  14.634  11.377  1.00 20.00    +0.049 H 
ATOM     59 H59  LIG A   1      18.457  15.794  12.212  1.00 20.00    +0.049 H 
ATOM     60 H60  LIG A   1      17.100  16.096  10.320  1.00 20.00    +0.160 HD
ATOM     61 H61  LIG A   1      19.976  13.985   9.312  1.00 20.00    +0.064 H 
ATOM     62 H62  LIG A   1      20.138  12.964   7.123  1.00 20.00    +0.063 H 
ATOM     63 H63  LIG A   1      20.293  12.158   4.783  1.00 20.00    +0.066 H 
ATOM     64 H64  LIG A   1      19.219  11.353   2.422  1.00 20.00    +0.066 H 
ATOM     65 H65  LIG A   1      17.286  10.773   0.965  1.00 20.00    +0.063 H 
ATOM     66 H66  LIG A   1      15.433  10.528  -0.575  1.00 20.00    +0.064 H 
ATOM     67 H67  LIG A   1      12.382  12.590  -0.346  1.00 20.00    +0.160 HD
ATOM     68 H68  LIG A   1      12.302  11.627  -2.330  1.00 20.00    +0.049 H 
ATOM     69 H69  LIG A   1      14.004  11.277  -2.167  1.00 20.00    +0.049 H 
ATOM     70 H70  LIG A   1      12.901   9.157  -2.528  1.00 20.00    +0.030 H 
ATOM     71 H71  LIG A   1      13.367   9.165  -0.835  1.00 20.00    +0.030 H 
ATOM     72 H72  LIG A   1      11.140   8.306  -0.930  1.00 20.00    +0.043 H 
ATOM     73 H73  LIG A   1      11.044   9.918  -0.216  1.00 20.00    +0.043 H 
ATOM     74 H74  LIG A   1      10.464   9.127  -3.004  1.00 20.00    +0.122 HD
ATOM     75 H75  LIG A   1       8.293   9.687  -2.685  1.00 20.00    +0.043 H 
ATOM     76 H76  LIG A   1       8.732   8.676  -1.320  1.00 20.00    +0.043 H 
ATOM     77 H77  LIG A   1       9.013  10.721   0.106  1.00 20.00    +0.028 H 
ATOM     78 H78  LIG A   1       7.412  10.595  -0.601  1.00 20.00    +0.028 H 
ATOM     79 H79  LIG A   1       8.034  12.233  -2.380  1.00 20.00    +0.028 H 
ATOM     80 H80  LIG A   1       9.672  12.329  -1.746  1.00 20.00    +0.028 H 
ATOM     81 H81  LIG A   1       8.835  13.263   0.404  1.00 20.00    +0.043 H 
ATOM     82 H82  LIG A   1       8.448  14.263  -0.994  1.00 20.00    +0.043 H 
ATOM     83 H83  LIG A   1       6.248  13.245  -0.994  1.00 20.00    +0.118 HD
ATOM     84 H84  LIG A   1       6.604  12.438   0.374  1.00 20.00    +0.118 HD
ATOM     85 H85  LIG A   1      13.096  13.262   1.787  1.00 20.00    +0.064 H 
ATOM     86 H86  LIG A   1      14.955  13.507   3.345  1.00 20.00    +0.063 H 
ATOM     87 H87  LIG A   1      16.186  14.385   6.161  1.00 20.00    +0.063 H 
ATOM     88 H88  LIG A   1      16.030  15.415   8.364  1.00 20.00    +0.064 H 
ATOM     89 H89  LIG A   1      14.685  12.692   3.271  1.00 20.00    +0.118 HD
ATOM     90 H90  LIG A   1      15.534  13.384   2.062  1.00 20.00    +0.118 HD
ATOM     91 H91  LIG A   1      16.042  15.301   3.327  1.00 20.00    +0.043 H 
ATOM     92 H92  LIG A   1      14.304  15.001   3.282  1.00 20.00    +0.043 H 
ATOM     93 H93  LIG A   1      14.777  15.492   5.567  1.00 20.00    +0.029 H 
ATOM     94 H94  LIG A   1      14.504  13.764   5.497  1.00 20.00    +0.029 H 
ATOM     95 H95  LIG A   1      16.404  14.063   6.906  1.00 20.00    +0.043 H 
ATOM     96 H96  LIG A   1      17.061  13.444   5.392  1.00 20.00    +0.043 H 
ATOM     97 H97  LIG A   1      18.323  15.259   6.194  1.00 20.00    +0.118 HD
ATOM     98 H98  LIG A   1      17.023  16.238   6.308  1.00 20.00    +0.118 HD
ENDROOT
TORSDOF 0
                                                                                                     
ENDMDL
MODEL 7
REMARK VINA RESULT:    -8.853      2.902     14.910
REMARK INTER + INTRA:          -8.853
REMARK INTER:                  -8.853
REMARK INTRA:                   0.000
REMARK UNBOUND:                 0.000
ROOT
ATOM      1 N1   LIG A   1      18.795  30.154  16.005  1.00 20.00    -0.330 NA
ATOM      2 C2   LIG A   1      17.984  29.093  15.417  1.00 20.00    -0.008 C 
ATOM      3 C3   LIG A   1      18.709  27.749  15.483  1.00 20.00    -0.040 C 
ATOM      4 C4   LIG A   1      17.855  26.629  14.880  1.00 20.00    -0.039 C 
ATOM      5 C5   LIG A   1      18.517  25.252  14.987  1.00 20.00    -0.005 C 
ATOM      6 N6   LIG A   1      19.752  25.202  14.205  1.00 20.00    -0.317 NA
ATOM      7 C7   LIG A   1      20.417  23.903  14.342  1.00 20.00    -0.003 C 
ATOM      8 C8   LIG A   1      21.696  23.892  13.503  1.00 20.00    -0.023 C 
ATOM      9 C9   LIG A   1      22.517  22.616  13.704  1.00 20.00    +0.016 C 
ATOM     10 N10  LIG A   1      21.829  21.418  13.242  1.00 20.00    -0.385 NA
ATOM     11 C11  LIG A   1      21.640  21.110  11.901  1.00 20.00    +0.034 A 
ATOM     12 C12  LIG A   1      22.340  21.714  10.855  1.00 20.00    -0.038 A 
ATOM     13 C13  LIG A   1      22.160  21.308   9.523  1.00 20.00    -0.049 A 
ATOM     14 C14  LIG A   1      21.291  20.261   9.198  1.00 20.00    +0.017 A 
ATOM     15 C15  LIG A   1      21.122  19.829   7.814  1.00 20.00    +0.134 A 
ATOM     16 C16  LIG A   1      21.554  20.303   6.590  1.00 20.00    -0.015 A 
ATOM     17 C17  LIG A   1      21.061  19.406   5.608  1.00 20.00    -0.015 A 
ATOM     18 C18  LIG A   1      20.352  18.430   6.279  1.00 20.00    +0.134 A 
ATOM     19 C19  LIG A   1      19.626  17.230   5.874  1.00 20.00    +0.017 A 
ATOM     20 C20  LIG A   1      19.707  16.749   4.563  1.00 20.00    -0.049 A 
ATOM     21 C21  LIG A   1      19.021  15.588   4.173  1.00 20.00    -0.038 A 
ATOM     22 C22  LIG A   1      18.207  14.887   5.067  1.00 20.00    +0.034 A 
ATOM     23 N23  LIG A   1      17.560  13.694   4.766  1.00 20.00    -0.385 NA
ATOM     24 C24  LIG A   1      17.380  13.210   3.400  1.00 20.00    +0.016 C 
ATOM     25 C25  LIG A   1      18.525  12.280   2.992  1.00 20.00    -0.023 C 
ATOM     26 C26  LIG A   1      18.539  10.963   3.774  1.00 20.00    -0.003 C 
ATOM     27 N27  LIG A   1      17.394  10.119   3.405  1.00 20.00    -0.317 NA
ATOM     28 C28  LIG A   1      17.297   8.920   4.241  1.00 20.00    -0.005 C 
ATOM     29 C29  LIG A   1      16.782   9.185   5.663  1.00 20.00    -0.039 C 
ATOM     30 C30  LIG A   1      15.394   9.835   5.683  1.00 20.00    -0.040 C 
ATOM     31 C31  LIG A   1      14.889  10.156   7.092  1.00 20.00    -0.008 C 
ATOM     32 N32  LIG A   1      14.686   8.970   7.915  1.00 20.00    -0.330 NA
ATOM     33 C33  LIG A   1      18.153  15.359   6.384  1.00 20.00    -0.038 A 
ATOM     34 C34  LIG A   1      18.839  16.514   6.781  1.00 20.00    -0.049 A 
ATOM     35 O35  LIG A   1      20.385  18.695   7.619  1.00 20.00    -0.456 OA
ATOM     36 C36  LIG A   1      20.610  19.632  10.246  1.00 20.00    -0.049 A 
ATOM     37 C37  LIG A   1      20.791  20.046  11.573  1.00 20.00    -0.038 A 
ATOM     38 N38  LIG A   1      18.937  17.160   7.306  1.00 20.00    -0.330 NA
ATOM     39 C39  LIG A   1      18.140  17.649   8.430  1.00 20.00    -0.007 C 
ATOM     40 C40  LIG A   1      18.993  17.842   9.685  1.00 20.00    -0.029 C 
ATOM     41 C41  LIG A   1      19.941  19.040   9.612  1.00 20.00    -0.007 C 
ATOM     42 N42  LIG A   1      19.217  20.307   9.709  1.00 20.00    -0.330 NA
ATOM     43 H43  LIG A   1      19.030  29.907  16.966  1.00 20.00    +0.118 HD
ATOM     44 H44  LIG A   1      19.687  30.210  15.510  1.00 20.00    +0.118 HD
ATOM     45 H45  LIG A   1      17.761  29.352  14.376  1.00 20.00    +0.043 H 
ATOM     46 H46  LIG A   1      17.032  29.038  15.954  1.00 20.00    +0.043 H 
ATOM     47 H47  LIG A   1      18.942  27.506  16.527  1.00 20.00    +0.028 H 
ATOM     48 H48  LIG A   1      19.664  27.824  14.947  1.00 20.00    +0.028 H 
ATOM     49 H49  LIG A   1      16.891  26.589  15.403  1.00 20.00    +0.028 H 
ATOM     50 H50  LIG A   1      17.633  26.856  13.829  1.00 20.00    +0.028 H 
ATOM     51 H51  LIG A   1      17.813  24.494  14.622  1.00 20.00    +0.043 H 
ATOM     52 H52  LIG A   1      18.726  25.034  16.041  1.00 20.00    +0.043 H 
ATOM     53 H53  LIG A   1      19.536  25.369  13.220  1.00 20.00    +0.122 HD
ATOM     54 H54  LIG A   1      19.745  23.102  14.013  1.00 20.00    +0.043 H 
ATOM     55 H55  LIG A   1      20.669  23.728  15.394  1.00 20.00    +0.043 H 
ATOM     56 H56  LIG A   1      21.446  24.026  12.444  1.00 20.00    +0.030 H 
ATOM     57 H57  LIG A   1      22.323  24.745  13.790  1.00 20.00    +0.030 H 
ATOM     58 H58  LIG A   1      23.493  22.714  13.216  1.00 20.00    +0.049 H 
ATOM     59 H59  LIG A   1      22.732  22.491  14.772  1.00 20.00    +0.049 H 
ATOM     60 H60  LIG A   1      21.081  21.099  13.851  1.00 20.00    +0.160 HD
ATOM     61 H61  LIG A   1      23.048  22.514  11.045  1.00 20.00    +0.064 H 
ATOM     62 H62  LIG A   1      22.727  21.818   8.749  1.00 20.00    +0.063 H 
ATOM     63 H63  LIG A   1      22.153  21.185   6.421  1.00 20.00    +0.066 H 
ATOM     64 H64  LIG A   1      21.210  19.468   4.540  1.00 20.00    +0.066 H 
ATOM     65 H65  LIG A   1      20.323  17.255   3.824  1.00 20.00    +0.063 H 
ATOM     66 H66  LIG A   1      19.150  15.246   3.150  1.00 20.00    +0.064 H 
ATOM     67 H67  LIG A   1      16.752  13.519   5.359  1.00 20.00    +0.160 HD
ATOM     68 H68  LIG A   1      16.426  12.672   3.347  1.00 20.00    +0.049 H 
ATOM     69 H69  LIG A   1      17.286  14.041   2.692  1.00 20.00    +0.049 H 
ATOM     70 H70  LIG A   1      18.449  12.069   1.918  1.00 20.00    +0.030 H 
ATOM     71 H71  LIG A   1      19.488  12.781   3.143  1.00 20.00    +0.030 H 
ATOM     72 H72  LIG A   1      19.468  10.426   3.543  1.00 20.00    +0.043 H 
ATOM     73 H73  LIG A   1      18.548  11.182   4.847  1.00 20.00    +0.043 H 
ATOM     74 H74  LIG A   1      17.507   9.830   2.433  1.00 20.00    +0.122 HD
ATOM     75 H75  LIG A   1      16.603   8.226   3.752  1.00 20.00    +0.043 H 
ATOM     76 H76  LIG A   1      18.264   8.404   4.286  1.00 20.00    +0.043 H 
ATOM     77 H77  LIG A   1      17.493   9.809   6.217  1.00 20.00    +0.028 H 
ATOM     78 H78  LIG A   1      16.746   8.222   6.185  1.00 20.00    +0.028 H 
ATOM     79 H79  LIG A   1      14.676   9.180   5.172  1.00 20.00    +0.028 H 
ATOM     80 H80  LIG A   1      15.417  10.774   5.117  1.00 20.00    +0.028 H 
ATOM     81 H81  LIG A   1      15.589  10.831   7.599  1.00 20.00    +0.043 H 
ATOM     82 H82  LIG A   1      13.934  10.688   7.013  1.00 20.00    +0.043 H 
ATOM     83 H83  LIG A   1      14.098   8.303   7.416  1.00 20.00    +0.118 HD
ATOM     84 H84  LIG A   1      15.577   8.499   8.070  1.00 20.00    +0.118 HD
ATOM     85 H85  LIG A   1      17.574  14.820   7.131  1.00 20.00    +0.064 H 
ATOM     86 H86  LIG A   1      18.759  16.837   7.817  1.00 20.00    +0.063 H 
ATOM     87 H87  LIG A   1      19.935  18.805  10.045  1.00 20.00    +0.063 H 
ATOM     88 H88  LIG A   1      20.257  19.512  12.355  1.00 20.00    +0.064 H 
ATOM     89 H89  LIG A   1      19.285  16.226   7.516  1.00 20.00    +0.118 HD
ATOM     90 H90  LIG A   1      18.335  17.065   6.489  1.00 20.00    +0.118 HD
ATOM     91 H91  LIG A   1      17.645  18.584   8.147  1.00 20.00    +0.043 H 
ATOM     92 H92  LIG A   1      17.353  16.916   8.640  1.00 20.00    +0.043 H 
ATOM     93 H93  LIG A   1      18.329  17.952  10.553  1.00 20.00    +0.029 H 
ATOM     94 H94  LIG A   1      19.580  16.934   9.871  1.00 20.00    +0.029 H 
ATOM     95 H95  LIG A   1      20.653  18.985  10.443  1.00 20.00    +0.043 H 
ATOM     96 H96  LIG A   1      20.522  19.021   8.684  1.00 20.00    +0.043 H 
ATOM     97 H97  LIG A   1      19.883  21.076   9.634  1.00 20.00    +0.118 HD
ATOM     98 H98  LIG A   1      18.791  20.387  10.631  1.00 20.00    +0.118 HD
ENDROOT
TORSDOF 0
                                                                                                     
ENDMDL
MODEL 8
REMARK VINA RESULT:    -8.851      9.892     19.457
REMARK INTER + INTRA:          -8.851
REMARK INTER:                  -8.851
REMARK INTRA:                   0.000
REMARK UNBOUND:                 0.000
ROOT
ATOM      1 N1   LIG A   1      24.288  21.170   7.288  1.00 20.00    -0.330 NA
ATOM      2 C2   LIG A   1      23.075  21.261   6.483  1.00 20.00    -0.008 C 
ATOM      3 C3   LIG A   1      21.990  20.328   7.021  1.00 20.00    -0.040 C 
ATOM      4 C4   LIG A   1      20.708  20.431   6.186  1.00 20.00    -0.039 C 
ATOM      5 C5   LIG A   1      19.572  19.561   6.732  1.00 20.00    -0.005 C 
ATOM      6 N6   LIG A   1      19.917  18.142   6.659  1.00 20.00    -0.317 NA
ATOM      7 C7   LIG A   1      18.854  17.306   7.224  1.00 20.00    -0.003 C 
ATOM      8 C8   LIG A   1      19.252  15.832   7.119  1.00 20.00    -0.023 C 
ATOM      9 C9   LIG A   1      18.252  14.905   7.814  1.00 20.00    +0.016 C 
ATOM     10 N10  LIG A   1      16.935  14.919   7.191  1.00 20.00    -0.385 NA
ATOM     11 C11  LIG A   1      16.660  14.330   5.964  1.00 20.00    +0.034 A 
ATOM     12 C12  LIG A   1      17.494  13.401   5.339  1.00 20.00    -0.038 A 
ATOM     13 C13  LIG A   1      17.127  12.782   4.133  1.00 20.00    -0.049 A 
ATOM     14 C14  LIG A   1      15.896  13.055   3.527  1.00 20.00    +0.017 A 
ATOM     15 C15  LIG A   1      15.511  12.394   2.283  1.00 20.00    +0.134 A 
ATOM     16 C16  LIG A   1      16.154  11.564   1.386  1.00 20.00    -0.015 A 
ATOM     17 C17  LIG A   1      15.209  11.243   0.378  1.00 20.00    -0.015 A 
ATOM     18 C18  LIG A   1      14.037  11.892   0.708  1.00 20.00    +0.134 A 
ATOM     19 C19  LIG A   1      12.704  11.966   0.116  1.00 20.00    +0.017 A 
ATOM     20 C20  LIG A   1      12.339  11.121  -0.937  1.00 20.00    -0.049 A 
ATOM     21 C21  LIG A   1      11.054  11.179  -1.501  1.00 20.00    -0.038 A 
ATOM     22 C22  LIG A   1      10.104  12.101  -1.055  1.00 20.00    +0.034 A 
ATOM     23 N23  LIG A   1       8.794  12.162  -1.518  1.00 20.00    -0.385 NA
ATOM     24 C24  LIG A   1       8.355  11.506  -2.746  1.00 20.00    +0.016 C 
ATOM     25 C25  LIG A   1       7.811  10.105  -2.456  1.00 20.00    -0.023 C 
ATOM     26 C26  LIG A   1       6.511  10.119  -1.645  1.00 20.00    -0.003 C 
ATOM     27 N27  LIG A   1       5.399  10.654  -2.443  1.00 20.00    -0.317 NA
ATOM     28 C28  LIG A   1       4.178  10.819  -1.651  1.00 20.00    -0.005 C 
ATOM     29 C29  LIG A   1       4.208  12.017  -0.693  1.00 20.00    -0.039 C 
ATOM     30 C30  LIG A   1       4.435  13.352  -1.412  1.00 20.00    -0.040 C 
ATOM     31 C31  LIG A   1       4.523  14.551  -0.465  1.00 20.00    -0.008 C 
ATOM     32 N32  LIG A   1       3.284  14.800   0.263  1.00 20.00    -0.330 NA
ATOM     33 C33  LIG A   1      10.468  12.924   0.018  1.00 20.00    -0.038 A 
ATOM     34 C34  LIG A   1      11.746  12.868   0.588  1.00 20.00    -0.049 A 
ATOM     35 O35  LIG A   1      14.227  12.598   1.863  1.00 20.00    -0.456 OA
ATOM     36 C36  LIG A   1      15.044  13.963   4.165  1.00 20.00    -0.049 A 
ATOM     37 C37  LIG A   1      15.419  14.580   5.366  1.00 20.00    -0.038 A 
ATOM     38 N38  LIG A   1      12.363  13.222   1.031  1.00 20.00    -0.330 NA
ATOM     39 C39  LIG A   1      12.544  14.568   1.572  1.00 20.00    -0.007 C 
ATOM     40 C40  LIG A   1      12.902  14.534   3.059  1.00 20.00    -0.029 C 
ATOM     41 C41  LIG A   1      14.321  14.042   3.344  1.00 20.00    -0.007 C 
ATOM     42 N42  LIG A   1      15.325  15.033   2.956  1.00 20.00    -0.330 NA
ATOM     43 H43  LIG A   1      24.066  21.382   8.261  1.00 20.00    +0.118 HD
ATOM     44 H44  LIG A   1      24.621  20.205   7.288  1.00 20.00    +0.118 HD
ATOM     45 H45  LIG A   1      23.316  21.004   5.446  1.00 20.00    +0.043 H 
ATOM     46 H46  LIG A   1      22.723  22.297   6.491  1.00 20.00    +0.043 H 
ATOM     47 H47  LIG A   1      21.766  20.584   8.064  1.00 20.00    +0.028 H 
ATOM     48 H48  LIG A   1      22.361  19.295   7.013  1.00 20.00    +0.028 H 
ATOM     49 H49  LIG A   1      20.368  21.475   6.176  1.00 20.00    +0.028 H 
ATOM     50 H50  LIG A   1      20.920  20.159   5.144  1.00 20.00    +0.028 H 
ATOM     51 H51  LIG A   1      18.667  19.756   6.144  1.00 20.00    +0.043 H 
ATOM     52 H52  LIG A   1      19.365  19.849   7.770  1.00 20.00    +0.043 H 
ATOM     53 H53  LIG A   1      20.069  17.881   5.682  1.00 20.00    +0.122 HD
ATOM     54 H54  LIG A   1      17.915  17.481   6.687  1.00 20.00    +0.043 H 
ATOM     55 H55  LIG A   1      18.700  17.568   8.277  1.00 20.00    +0.043 H 
ATOM     56 H56  LIG A   1      19.367  15.554   6.066  1.00 20.00    +0.030 H 
ATOM     57 H57  LIG A   1      20.231  15.688   7.594  1.00 20.00    +0.030 H 
ATOM     58 H58  LIG A   1      18.648  13.885   7.857  1.00 20.00    +0.049 H 
ATOM     59 H59  LIG A   1      18.134  15.220   8.858  1.00 20.00    +0.049 H 
ATOM     60 H60  LIG A   1      16.384  15.750   7.386  1.00 20.00    +0.160 HD
ATOM     61 H61  LIG A   1      18.450  13.128   5.773  1.00 20.00    +0.064 H 
ATOM     62 H62  LIG A   1      17.819  12.072   3.689  1.00 20.00    +0.063 H 
ATOM     63 H63  LIG A   1      17.178  11.226   1.448  1.00 20.00    +0.066 H 
ATOM     64 H64  LIG A   1      15.369  10.610  -0.483  1.00 20.00    +0.066 H 
ATOM     65 H65  LIG A   1      13.039  10.386  -1.327  1.00 20.00    +0.063 H 
ATOM     66 H66  LIG A   1      10.819  10.475  -2.294  1.00 20.00    +0.064 H 
ATOM     67 H67  LIG A   1       8.365  13.074  -1.381  1.00 20.00    +0.160 HD
ATOM     68 H68  LIG A   1       7.572  12.121  -3.206  1.00 20.00    +0.049 H 
ATOM     69 H69  LIG A   1       9.163  11.461  -3.486  1.00 20.00    +0.049 H 
ATOM     70 H70  LIG A   1       7.646   9.581  -3.405  1.00 20.00    +0.030 H 
ATOM     71 H71  LIG A   1       8.555   9.520  -1.903  1.00 20.00    +0.030 H 
ATOM     72 H72  LIG A   1       6.273   9.092  -1.343  1.00 20.00    +0.043 H 
ATOM     73 H73  LIG A   1       6.664  10.700  -0.730  1.00 20.00    +0.043 H 
ATOM     74 H74  LIG A   1       5.208  10.002  -3.205  1.00 20.00    +0.122 HD
ATOM     75 H75  LIG A   1       3.344  10.962  -2.349  1.00 20.00    +0.043 H 
ATOM     76 H76  LIG A   1       3.956   9.901  -1.093  1.00 20.00    +0.043 H 
ATOM     77 H77  LIG A   1       4.976  11.873   0.076  1.00 20.00    +0.028 H 
ATOM     78 H78  LIG A   1       3.246  12.041  -0.165  1.00 20.00    +0.028 H 
ATOM     79 H79  LIG A   1       3.633  13.515  -2.144  1.00 20.00    +0.028 H 
ATOM     80 H80  LIG A   1       5.372  13.310  -1.981  1.00 20.00    +0.028 H 
ATOM     81 H81  LIG A   1       5.339  14.406   0.253  1.00 20.00    +0.043 H 
ATOM     82 H82  LIG A   1       4.765  15.446  -1.048  1.00 20.00    +0.043 H 
ATOM     83 H83  LIG A   1       2.506  14.858  -0.394  1.00 20.00    +0.118 HD
ATOM     84 H84  LIG A   1       3.078  14.013   0.875  1.00 20.00    +0.118 HD
ATOM     85 H85  LIG A   1       9.747  13.623   0.436  1.00 20.00    +0.064 H 
ATOM     86 H86  LIG A   1      11.976  13.533   1.418  1.00 20.00    +0.063 H 
ATOM     87 H87  LIG A   1      14.071  14.196   3.739  1.00 20.00    +0.063 H 
ATOM     88 H88  LIG A   1      14.714  15.261   5.835  1.00 20.00    +0.064 H 
ATOM     89 H89  LIG A   1      11.557  12.782   1.470  1.00 20.00    +0.118 HD
ATOM     90 H90  LIG A   1      12.147  13.290   0.037  1.00 20.00    +0.118 HD
ATOM     91 H91  LIG A   1      13.315  15.092   0.998  1.00 20.00    +0.043 H 
ATOM     92 H92  LIG A   1      11.608  15.122   1.441  1.00 20.00    +0.043 H 
ATOM     93 H93  LIG A   1      12.772  15.541   3.479  1.00 20.00    +0.029 H 
ATOM     94 H94  LIG A   1      12.189  13.893   3.592  1.00 20.00    +0.029 H 
ATOM     95 H95  LIG A   1      14.426  13.847   4.417  1.00 20.00    +0.043 H 
ATOM     96 H96  LIG A   1      14.520  13.099   2.823  1.00 20.00    +0.043 H 
ATOM     97 H97  LIG A   1      16.253  14.656   3.143  1.00 20.00    +0.118 HD
ATOM     98 H98  LIG A   1      15.230  15.862   3.542  1.00 20.00    +0.118 HD
ENDROOT
TORSDOF 0
                                                                                                     
ENDMDL
MODEL 9
REMARK VINA RESULT:    -8.815      3.012     14.012
REMARK INTER + INTRA:          -8.815
REMARK INTER:                  -8.815
REMARK INTRA:                   0.000
REMARK UNBOUND:                 0.000
ROOT
ATOM      1 N1   LIG A   1      22.851  31.430  17.238  1.00 20.00    -0.330 NA
ATOM      2 C2   LIG A   1      21.812  30.465  16.898  1.00 20.00    -0.008 C 
ATOM      3 C3   LIG A   1      22.382  29.049  16.821  1.00 20.00    -0.040 C 
ATOM      4 C4   LIG A   1      21.289  28.030  16.478  1.00 20.00    -0.039 C 
ATOM      5 C5   LIG A   1      21.806  26.589  16.458  1.00 20.00    -0.005 C 
ATOM      6 N6   LIG A   1      22.796  26.402  15.397  1.00 20.00    -0.317 NA
ATOM      7 C7   LIG A   1      23.330  25.037  15.402  1.00 20.00    -0.003 C 
ATOM      8 C8   LIG A   1      24.353  24.884  14.275  1.00 20.00    -0.023 C 
ATOM      9 C9   LIG A   1      25.056  23.525  14.303  1.00 20.00    +0.016 C 
ATOM     10 N10  LIG A   1      24.151  22.411  14.059  1.00 20.00    -0.385 NA
ATOM     11 C11  LIG A   1      23.604  22.125  12.815  1.00 20.00    +0.034 A 
ATOM     12 C12  LIG A   1      24.083  22.647  11.612  1.00 20.00    -0.038 A 
ATOM     13 C13  LIG A   1      23.537  22.263  10.377  1.00 20.00    -0.049 A 
ATOM     14 C14  LIG A   1      22.507  21.318  10.306  1.00 20.00    +0.017 A 
ATOM     15 C15  LIG A   1      21.955  20.908   9.018  1.00 20.00    +0.134 A 
ATOM     16 C16  LIG A   1      22.118  21.330   7.713  1.00 20.00    -0.015 A 
ATOM     17 C17  LIG A   1      21.304  20.493   6.908  1.00 20.00    -0.015 A 
ATOM     18 C18  LIG A   1      20.684  19.602   7.759  1.00 20.00    +0.134 A 
ATOM     19 C19  LIG A   1      19.755  18.489   7.580  1.00 20.00    +0.017 A 
ATOM     20 C20  LIG A   1      19.457  18.001   6.303  1.00 20.00    -0.049 A 
ATOM     21 C21  LIG A   1      18.575  16.924   6.126  1.00 20.00    -0.038 A 
ATOM     22 C22  LIG A   1      17.938  16.318   7.212  1.00 20.00    +0.034 A 
ATOM     23 N23  LIG A   1      17.112  15.204   7.114  1.00 20.00    -0.385 NA
ATOM     24 C24  LIG A   1      16.548  14.742   5.848  1.00 20.00    +0.016 C 
ATOM     25 C25  LIG A   1      17.450  13.691   5.197  1.00 20.00    -0.023 C 
ATOM     26 C26  LIG A   1      17.516  12.380   5.988  1.00 20.00    -0.003 C 
ATOM     27 N27  LIG A   1      16.231  11.669   5.936  1.00 20.00    -0.317 NA
ATOM     28 C28  LIG A   1      16.217  10.488   6.803  1.00 20.00    -0.005 C 
ATOM     29 C29  LIG A   1      16.102  10.809   8.299  1.00 20.00    -0.039 C 
ATOM     30 C30  LIG A   1      14.839  11.609   8.643  1.00 20.00    -0.040 C 
ATOM     31 C31  LIG A   1      14.737  11.985  10.123  1.00 20.00    -0.008 C 
ATOM     32 N32  LIG A   1      14.618  10.828  11.004  1.00 20.00    -0.330 NA
ATOM     33 C33  LIG A   1      18.262  16.793   8.489  1.00 20.00    -0.038 A 
ATOM     34 C34  LIG A   1      19.145  17.865   8.672  1.00 20.00    -0.049 A 
ATOM     35 O35  LIG A   1      21.075  19.862   9.043  1.00 20.00    -0.456 OA
ATOM     36 C36  LIG A   1      22.044  20.770  11.506  1.00 20.00    -0.049 A 
ATOM     37 C37  LIG A   1      22.591  21.161  12.735  1.00 20.00    -0.038 A 
ATOM     38 N38  LIG A   1      19.439  18.496   9.139  1.00 20.00    -0.330 NA
ATOM     39 C39  LIG A   1      19.002  19.071  10.410  1.00 20.00    -0.007 C 
ATOM     40 C40  LIG A   1      20.155  19.169  11.411  1.00 20.00    -0.029 C 
ATOM     41 C41  LIG A   1      21.178  20.254  11.073  1.00 20.00    -0.007 C 
ATOM     42 N42  LIG A   1      20.642  21.595  11.309  1.00 20.00    -0.330 NA
ATOM     43 H43  LIG A   1      23.290  31.159  18.119  1.00 20.00    +0.118 HD
ATOM     44 H44  LIG A   1      23.593  31.386  16.538  1.00 20.00    +0.118 HD
ATOM     45 H45  LIG A   1      21.366  30.747  15.938  1.00 20.00    +0.043 H 
ATOM     46 H46  LIG A   1      21.022  30.517  17.654  1.00 20.00    +0.043 H 
ATOM     47 H47  LIG A   1      22.839  28.782  17.782  1.00 20.00    +0.028 H 
ATOM     48 H48  LIG A   1      23.176  29.018  16.065  1.00 20.00    +0.028 H 
ATOM     49 H49  LIG A   1      20.486  28.098  17.224  1.00 20.00    +0.028 H 
ATOM     50 H50  LIG A   1      20.839  28.280  15.508  1.00 20.00    +0.028 H 
ATOM     51 H51  LIG A   1      20.957  25.914  16.298  1.00 20.00    +0.043 H 
ATOM     52 H52  LIG A   1      22.245  26.350  17.434  1.00 20.00    +0.043 H 
ATOM     53 H53  LIG A   1      22.362  26.592  14.492  1.00 20.00    +0.122 HD
ATOM     54 H54  LIG A   1      22.516  24.316  15.272  1.00 20.00    +0.043 H 
ATOM     55 H55  LIG A   1      23.815  24.835  16.365  1.00 20.00    +0.043 H 
ATOM     56 H56  LIG A   1      23.864  25.044  13.307  1.00 20.00    +0.030 H 
ATOM     57 H57  LIG A   1      25.120  25.663  14.375  1.00 20.00    +0.030 H 
ATOM     58 H58  LIG A   1      25.886  23.514  13.588  1.00 20.00    +0.049 H 
ATOM     59 H59  LIG A   1      25.514  23.378  15.289  1.00 20.00    +0.049 H 
ATOM     60 H60  LIG A   1      23.547  22.177  14.841  1.00 20.00    +0.160 HD
ATOM     61 H61  LIG A   1      24.898  23.364  11.600  1.00 20.00    +0.064 H 
ATOM     62 H62  LIG A   1      23.946  22.707   9.473  1.00 20.00    +0.063 H 
ATOM     63 H63  LIG A   1      22.748  22.140   7.377  1.00 20.00    +0.066 H 
ATOM     64 H64  LIG A   1      21.190  20.538   5.834  1.00 20.00    +0.066 H 
ATOM     65 H65  LIG A   1      19.921  18.436   5.421  1.00 20.00    +0.063 H 
ATOM     66 H66  LIG A   1      18.409  16.569   5.113  1.00 20.00    +0.064 H 
ATOM     67 H67  LIG A   1      16.462  15.120   7.891  1.00 20.00    +0.160 HD
ATOM     68 H68  LIG A   1      15.559  14.313   6.047  1.00 20.00    +0.049 H 
ATOM     69 H69  LIG A   1      16.372  15.578   5.162  1.00 20.00    +0.049 H 
ATOM     70 H70  LIG A   1      17.088  13.489   4.180  1.00 20.00    +0.030 H 
ATOM     71 H71  LIG A   1      18.468  14.082   5.092  1.00 20.00    +0.030 H 
ATOM     72 H72  LIG A   1      18.295  11.744   5.550  1.00 20.00    +0.043 H 
ATOM     73 H73  LIG A   1      17.814  12.597   7.018  1.00 20.00    +0.043 H 
ATOM     74 H74  LIG A   1      16.069  11.368   4.974  1.00 20.00    +0.122 HD
ATOM     75 H75  LIG A   1      15.352   9.875   6.519  1.00 20.00    +0.043 H 
ATOM     76 H76  LIG A   1      17.104   9.868   6.622  1.00 20.00    +0.043 H 
ATOM     77 H77  LIG A   1      16.990  11.350   8.644  1.00 20.00    +0.028 H 
ATOM     78 H78  LIG A   1      16.093   9.856   8.841  1.00 20.00    +0.028 H 
ATOM     79 H79  LIG A   1      13.951  11.038   8.343  1.00 20.00    +0.028 H 
ATOM     80 H80  LIG A   1      14.823  12.540   8.063  1.00 20.00    +0.028 H 
ATOM     81 H81  LIG A   1      15.609  12.578  10.423  1.00 20.00    +0.043 H 
ATOM     82 H82  LIG A   1      13.855  12.619  10.267  1.00 20.00    +0.043 H 
ATOM     83 H83  LIG A   1      13.857  10.230  10.683  1.00 20.00    +0.118 HD
ATOM     84 H84  LIG A   1      15.464  10.262  10.947  1.00 20.00    +0.118 HD
ATOM     85 H85  LIG A   1      17.833  16.322   9.370  1.00 20.00    +0.064 H 
ATOM     86 H86  LIG A   1      19.359  18.196   9.687  1.00 20.00    +0.063 H 
ATOM     87 H87  LIG A   1      21.255  20.022  11.501  1.00 20.00    +0.063 H 
ATOM     88 H88  LIG A   1      22.214  20.690  13.639  1.00 20.00    +0.064 H 
ATOM     89 H89  LIG A   1      19.726  17.530   9.282  1.00 20.00    +0.118 HD
ATOM     90 H90  LIG A   1      18.647  18.468   8.497  1.00 20.00    +0.118 HD
ATOM     91 H91  LIG A   1      18.556  20.056  10.232  1.00 20.00    +0.043 H 
ATOM     92 H92  LIG A   1      18.218  18.430  10.828  1.00 20.00    +0.043 H 
ATOM     93 H93  LIG A   1      19.743  19.353  12.412  1.00 20.00    +0.029 H 
ATOM     94 H94  LIG A   1      20.669  18.202  11.471  1.00 20.00    +0.029 H 
ATOM     95 H95  LIG A   1      22.064  20.122  11.704  1.00 20.00    +0.043 H 
ATOM     96 H96  LIG A   1      21.506  20.172  10.032  1.00 20.00    +0.043 H 
ATOM     97 H97  LIG A   1      21.346  22.285  11.052  1.00 20.00    +0.118 HD
ATOM     98 H98  LIG A   1      20.468  21.722  12.306  1.00 20.00    +0.118 HD
ENDROOT
TORSDOF 0
                                                                                                     
ENDMDL
