ROOT
ATOM      1 C1   LIG A   1      -0.653   0.771   2.574  1.00 20.00    -0.060 C 
ATOM      2 C2   LIG A   1       0.029   0.747   1.199  1.00 20.00    -0.016 C 
ATOM      3 C3   LIG A   1      -0.852   1.426   0.117  1.00 20.00    -0.022 C 
ATOM      4 C4   LIG A   1      -2.045   0.576  -0.311  1.00 20.00    -0.029 A 
ATOM      5 C5   LIG A   1      -1.855  -0.495  -1.238  1.00 20.00    +0.004 A 
ATOM      6 C6   LIG A   1      -0.620  -0.829  -1.856  1.00 20.00    -0.053 A 
ATOM      7 C7   LIG A   1      -0.506  -1.896  -2.746  1.00 20.00    -0.062 A 
ATOM      8 C8   LIG A   1      -1.624  -2.656  -3.044  1.00 20.00    -0.060 A 
ATOM      9 C9   LIG A   1      -2.845  -2.336  -2.451  1.00 20.00    -0.036 A 
ATOM     10 C10  LIG A   1      -2.981  -1.276  -1.564  1.00 20.00    +0.071 A 
ATOM     11 N11  LIG A   1      -4.199  -1.052  -1.058  1.00 20.00    -0.248 NA
ATOM     12 C12  LIG A   1      -4.385  -0.039  -0.205  1.00 20.00    +0.071 A 
ATOM     13 C13  LIG A   1      -5.673   0.151   0.278  1.00 20.00    -0.036 A 
ATOM     14 C14  LIG A   1      -5.986   1.171   1.175  1.00 20.00    -0.060 A 
ATOM     15 C15  LIG A   1      -4.987   2.027   1.604  1.00 20.00    -0.062 A 
ATOM     16 C16  LIG A   1      -3.685   1.855   1.131  1.00 20.00    -0.053 A 
ATOM     17 C17  LIG A   1      -3.350   0.821   0.217  1.00 20.00    +0.004 A 
ATOM     18 C18  LIG A   1       1.447   1.367   1.302  1.00 20.00    +0.087 C 
ATOM     19 N19  LIG A   1       1.411   2.833   1.508  1.00 20.00    -0.320 NA
ATOM     20 C20  LIG A   1       2.290   1.042   0.045  1.00 20.00    +0.240 C 
ATOM     21 O21  LIG A   1       2.352   1.842  -0.894  1.00 20.00    -0.273 OA
ATOM     22 N22  LIG A   1       2.951  -0.163  -0.001  1.00 20.00    -0.328 NA
ATOM     23 C23  LIG A   1       2.940  -1.237   0.974  1.00 20.00    +0.022 C 
ATOM     24 C24  LIG A   1       3.160  -2.476   0.127  1.00 20.00    -0.033 C 
ATOM     25 C25  LIG A   1       4.127  -1.994  -0.948  1.00 20.00    -0.020 C 
ATOM     26 C26  LIG A   1       3.745  -0.526  -1.182  1.00 20.00    +0.129 C 
ATOM     27 C27  LIG A   1       5.026   0.292  -1.369  1.00 20.00    +0.326 C 
ATOM     28 O28  LIG A   1       5.764   0.232  -2.342  1.00 20.00    -0.250 OA
ATOM     29 O29  LIG A   1       5.371   1.058  -0.313  1.00 20.00    -0.480 OA
ATOM     30 N30  LIG A   1       1.888   0.527   0.717  1.00 20.00    -0.330 NA
ATOM     31 C31  LIG A   1       1.017   0.638  -0.452  1.00 20.00    -0.007 C 
ATOM     32 C32  LIG A   1       0.099  -0.578  -0.590  1.00 20.00    -0.029 C 
ATOM     33 C33  LIG A   1      -1.017  -0.635   0.455  1.00 20.00    -0.007 C 
ATOM     34 N34  LIG A   1      -2.042   0.377   0.206  1.00 20.00    -0.330 NA
ATOM     35 H35  LIG A   1      -1.586   0.199   2.563  1.00 20.00    +0.023 H 
ATOM     36 H36  LIG A   1      -0.009   0.314   3.334  1.00 20.00    +0.023 H 
ATOM     37 H37  LIG A   1      -0.881   1.792   2.895  1.00 20.00    +0.023 H 
ATOM     38 H38  LIG A   1       0.144  -0.309   0.926  1.00 20.00    +0.032 H 
ATOM     39 H39  LIG A   1      -1.171   2.418   0.453  1.00 20.00    +0.032 H 
ATOM     40 H40  LIG A   1      -0.266   1.650  -0.781  1.00 20.00    +0.032 H 
ATOM     41 H41  LIG A   1       0.277  -0.248  -1.661  1.00 20.00    +0.063 H 
ATOM     42 H42  LIG A   1       0.451  -2.124  -3.209  1.00 20.00    +0.062 H 
ATOM     43 H43  LIG A   1      -1.558  -3.489  -3.738  1.00 20.00    +0.062 H 
ATOM     44 H44  LIG A   1      -3.724  -2.930  -2.692  1.00 20.00    +0.065 H 
ATOM     45 H45  LIG A   1      -6.461  -0.521  -0.057  1.00 20.00    +0.065 H 
ATOM     46 H46  LIG A   1      -7.005   1.290   1.531  1.00 20.00    +0.062 H 
ATOM     47 H47  LIG A   1      -5.212   2.828   2.304  1.00 20.00    +0.062 H 
ATOM     48 H48  LIG A   1      -2.933   2.548   1.498  1.00 20.00    +0.063 H 
ATOM     49 H49  LIG A   1       1.968   0.949   2.171  1.00 20.00    +0.057 H 
ATOM     50 H50  LIG A   1       2.371   3.151   1.658  1.00 20.00    +0.119 HD
ATOM     51 H51  LIG A   1       1.167   3.258   0.607  1.00 20.00    +0.119 HD
ATOM     52 H52  LIG A   1       2.015  -1.284   1.549  1.00 20.00    +0.049 H 
ATOM     53 H53  LIG A   1       3.778  -1.070   1.660  1.00 20.00    +0.049 H 
ATOM     54 H54  LIG A   1       3.549  -3.320   0.703  1.00 20.00    +0.029 H 
ATOM     55 H55  LIG A   1       2.216  -2.784  -0.340  1.00 20.00    +0.029 H 
ATOM     56 H56  LIG A   1       5.157  -2.088  -0.583  1.00 20.00    +0.029 H 
ATOM     57 H57  LIG A   1       4.050  -2.587  -1.865  1.00 20.00    +0.029 H 
ATOM     58 H58  LIG A   1       3.114  -0.396  -2.068  1.00 20.00    +0.065 H 
ATOM     59 H59  LIG A   1       6.182   1.518  -0.613  1.00 20.00    +0.296 HD
ATOM     60 H60  LIG A   1       2.528  -0.256   0.593  1.00 20.00    +0.118 HD
ATOM     61 H61  LIG A   1       2.468   1.363   0.779  1.00 20.00    +0.118 HD
ATOM     62 H62  LIG A   1       0.432   1.561  -0.386  1.00 20.00    +0.043 H 
ATOM     63 H63  LIG A   1       1.646   0.716  -1.346  1.00 20.00    +0.043 H 
ATOM     64 H64  LIG A   1      -0.342  -0.579  -1.595  1.00 20.00    +0.029 H 
ATOM     65 H65  LIG A   1       0.696  -1.496  -0.522  1.00 20.00    +0.029 H 
ATOM     66 H66  LIG A   1      -1.491  -1.622   0.421  1.00 20.00    +0.043 H 
ATOM     67 H67  LIG A   1      -0.613  -0.505   1.464  1.00 20.00    +0.043 H 
ATOM     68 H68  LIG A   1      -2.754   0.315   0.932  1.00 20.00    +0.118 HD
ATOM     69 H69  LIG A   1      -2.514   0.176  -0.675  1.00 20.00    +0.118 HD
ENDROOT
TORSDOF 0
