ROOT
ATOM      1 C1   LIG A   1      -4.643  -0.297   4.573  1.00 20.00    -0.060 C 
ATOM      2 C2   LIG A   1      -3.736  -0.526   3.348  1.00 20.00    -0.016 C 
ATOM      3 C3   LIG A   1      -4.134  -1.890   2.685  1.00 20.00    -0.023 C 
ATOM      4 C4   LIG A   1      -4.831  -1.763   1.355  1.00 20.00    -0.044 A 
ATOM      5 C5   LIG A   1      -6.134  -1.271   1.268  1.00 20.00    -0.058 A 
ATOM      6 C6   LIG A   1      -6.602  -0.768   0.056  1.00 20.00    -0.054 A 
ATOM      7 C7   LIG A   1      -5.758  -0.717  -1.069  1.00 20.00    +0.009 A 
ATOM      8 C8   LIG A   1      -4.507  -1.358  -1.006  1.00 20.00    +0.130 A 
ATOM      9 C9   LIG A   1      -4.081  -1.942   0.187  1.00 20.00    -0.016 A 
ATOM     10 O10  LIG A   1      -3.679  -1.286  -2.106  1.00 20.00    -0.464 OA
ATOM     11 C11  LIG A   1      -2.318  -1.172  -1.910  1.00 20.00    +0.104 C 
ATOM     12 C12  LIG A   1      -1.617  -0.107  -1.466  1.00 20.00    +0.082 C 
ATOM     13 C13  LIG A   1      -0.140  -0.183  -1.499  1.00 20.00    -0.010 A 
ATOM     14 C14  LIG A   1       0.539  -1.169  -0.773  1.00 20.00    -0.052 A 
ATOM     15 C15  LIG A   1       1.936  -1.252  -0.816  1.00 20.00    -0.038 A 
ATOM     16 C16  LIG A   1       2.699  -0.370  -1.593  1.00 20.00    +0.034 A 
ATOM     17 N17  LIG A   1       4.092  -0.471  -1.530  1.00 20.00    -0.385 NA
ATOM     18 C18  LIG A   1       4.923   0.274  -2.473  1.00 20.00    +0.016 C 
ATOM     19 C19  LIG A   1       6.408  -0.006  -2.221  1.00 20.00    -0.023 C 
ATOM     20 C20  LIG A   1       6.952   0.636  -0.936  1.00 20.00    -0.003 C 
ATOM     21 N21  LIG A   1       6.353   0.147   0.309  1.00 20.00    -0.317 NA
ATOM     22 C22  LIG A   1       6.797  -1.186   0.713  1.00 20.00    -0.005 C 
ATOM     23 C23  LIG A   1       8.221  -1.247   1.277  1.00 20.00    -0.039 C 
ATOM     24 C24  LIG A   1       8.397  -0.670   2.687  1.00 20.00    -0.040 C 
ATOM     25 C25  LIG A   1       8.092   0.821   2.811  1.00 20.00    -0.008 C 
ATOM     26 N26  LIG A   1       8.516   1.305   4.126  1.00 20.00    -0.330 NA
ATOM     27 C27  LIG A   1       2.016   0.641  -2.276  1.00 20.00    -0.038 A 
ATOM     28 C28  LIG A   1       0.617   0.725  -2.245  1.00 20.00    -0.052 A 
ATOM     29 C29  LIG A   1      -2.301   1.183  -1.097  1.00 20.00    +0.264 C 
ATOM     30 O30  LIG A   1      -2.049   2.215  -1.721  1.00 20.00    -0.268 OA
ATOM     31 N31  LIG A   1      -3.225   1.132  -0.060  1.00 20.00    -0.277 NA
ATOM     32 C32  LIG A   1      -4.374   2.041  -0.157  1.00 20.00    +0.029 C 
ATOM     33 C33  LIG A   1      -4.968   2.376  -1.545  1.00 20.00    -0.034 C 
ATOM     34 C34  LIG A   1      -5.200   1.275  -2.599  1.00 20.00    -0.034 C 
ATOM     35 C35  LIG A   1      -6.186   0.127  -2.261  1.00 20.00    +0.085 C 
ATOM     36 C36  LIG A   1      -6.473  -0.737  -3.488  1.00 20.00    +0.311 C 
ATOM     37 O37  LIG A   1      -6.426  -1.953  -3.578  1.00 20.00    -0.252 OA
ATOM     38 O38  LIG A   1      -6.892  -0.014  -4.551  1.00 20.00    -0.481 OA
ATOM     39 C39  LIG A   1      -2.810   0.589   1.169  1.00 20.00    +0.246 C 
ATOM     40 O40  LIG A   1      -1.721   0.022   1.324  1.00 20.00    -0.273 OA
ATOM     41 C41  LIG A   1      -3.731   0.742   2.421  1.00 20.00    +0.088 C 
ATOM     42 N42  LIG A   1      -3.233   1.918   3.182  1.00 20.00    -0.320 NA
ATOM     43 N43  LIG A   1       1.901   0.426   0.753  1.00 20.00    -0.330 NA
ATOM     44 C44  LIG A   1       1.050   0.603  -0.423  1.00 20.00    -0.007 C 
ATOM     45 C45  LIG A   1       0.082  -0.569  -0.600  1.00 20.00    -0.029 C 
ATOM     46 C46  LIG A   1      -1.051  -0.599   0.428  1.00 20.00    -0.007 C 
ATOM     47 N47  LIG A   1      -2.027   0.462   0.187  1.00 20.00    -0.330 NA
ATOM     48 H48  LIG A   1      -4.322   0.572   5.157  1.00 20.00    +0.023 H 
ATOM     49 H49  LIG A   1      -5.684  -0.138   4.273  1.00 20.00    +0.023 H 
ATOM     50 H50  LIG A   1      -4.610  -1.160   5.246  1.00 20.00    +0.023 H 
ATOM     51 H51  LIG A   1      -2.720  -0.666   3.746  1.00 20.00    +0.032 H 
ATOM     52 H52  LIG A   1      -3.217  -2.480   2.552  1.00 20.00    +0.032 H 
ATOM     53 H53  LIG A   1      -4.759  -2.493   3.355  1.00 20.00    +0.032 H 
ATOM     54 H54  LIG A   1      -6.751  -1.181   2.159  1.00 20.00    +0.063 H 
ATOM     55 H55  LIG A   1      -7.593  -0.319   0.027  1.00 20.00    +0.063 H 
ATOM     56 H56  LIG A   1      -3.089  -2.384   0.253  1.00 20.00    +0.067 H 
ATOM     57 H57  LIG A   1      -1.844  -2.078  -2.275  1.00 20.00    +0.105 H 
ATOM     58 H58  LIG A   1      -0.010  -1.862  -0.141  1.00 20.00    +0.063 H 
ATOM     59 H59  LIG A   1       2.430  -2.012  -0.214  1.00 20.00    +0.064 H 
ATOM     60 H60  LIG A   1       4.381  -1.442  -1.425  1.00 20.00    +0.160 HD
ATOM     61 H61  LIG A   1       4.676  -0.030  -3.498  1.00 20.00    +0.049 H 
ATOM     62 H62  LIG A   1       4.746   1.352  -2.380  1.00 20.00    +0.049 H 
ATOM     63 H63  LIG A   1       6.975   0.412  -3.063  1.00 20.00    +0.030 H 
ATOM     64 H64  LIG A   1       6.599  -1.085  -2.225  1.00 20.00    +0.030 H 
ATOM     65 H65  LIG A   1       6.760   1.716  -0.983  1.00 20.00    +0.043 H 
ATOM     66 H66  LIG A   1       8.042   0.536  -0.911  1.00 20.00    +0.043 H 
ATOM     67 H67  LIG A   1       5.334   0.117   0.163  1.00 20.00    +0.122 HD
ATOM     68 H68  LIG A   1       6.106  -1.552   1.484  1.00 20.00    +0.043 H 
ATOM     69 H69  LIG A   1       6.708  -1.889  -0.123  1.00 20.00    +0.043 H 
ATOM     70 H70  LIG A   1       8.936  -0.775   0.595  1.00 20.00    +0.028 H 
ATOM     71 H71  LIG A   1       8.512  -2.305   1.324  1.00 20.00    +0.028 H 
ATOM     72 H72  LIG A   1       9.437  -0.856   2.989  1.00 20.00    +0.028 H 
ATOM     73 H73  LIG A   1       7.768  -1.232   3.390  1.00 20.00    +0.028 H 
ATOM     74 H74  LIG A   1       8.611   1.391   2.033  1.00 20.00    +0.043 H 
ATOM     75 H75  LIG A   1       7.018   1.003   2.715  1.00 20.00    +0.043 H 
ATOM     76 H76  LIG A   1       8.299   2.298   4.197  1.00 20.00    +0.118 HD
ATOM     77 H77  LIG A   1       9.529   1.227   4.202  1.00 20.00    +0.118 HD
ATOM     78 H78  LIG A   1       2.550   1.387  -2.856  1.00 20.00    +0.064 H 
ATOM     79 H79  LIG A   1       0.129   1.517  -2.810  1.00 20.00    +0.063 H 
ATOM     80 H80  LIG A   1      -5.199   1.644   0.432  1.00 20.00    +0.050 H 
ATOM     81 H81  LIG A   1      -4.078   2.979   0.331  1.00 20.00    +0.050 H 
ATOM     82 H82  LIG A   1      -4.331   3.138  -2.012  1.00 20.00    +0.029 H 
ATOM     83 H83  LIG A   1      -5.926   2.885  -1.373  1.00 20.00    +0.029 H 
ATOM     84 H84  LIG A   1      -5.592   1.799  -3.483  1.00 20.00    +0.028 H 
ATOM     85 H85  LIG A   1      -4.240   0.883  -2.944  1.00 20.00    +0.028 H 
ATOM     86 H86  LIG A   1      -7.150   0.593  -2.014  1.00 20.00    +0.047 H 
ATOM     87 H87  LIG A   1      -7.050  -0.693  -5.241  1.00 20.00    +0.296 HD
ATOM     88 H88  LIG A   1      -4.763   0.956   2.154  1.00 20.00    +0.057 H 
ATOM     89 H89  LIG A   1      -2.287   1.701   3.510  1.00 20.00    +0.119 HD
ATOM     90 H90  LIG A   1      -3.120   2.715   2.556  1.00 20.00    +0.119 HD
ATOM     91 H91  LIG A   1       2.507  -0.381   0.618  1.00 20.00    +0.118 HD
ATOM     92 H92  LIG A   1       2.516   1.234   0.841  1.00 20.00    +0.118 HD
ATOM     93 H93  LIG A   1       0.505   1.549  -0.341  1.00 20.00    +0.043 H 
ATOM     94 H94  LIG A   1       1.692   0.674  -1.307  1.00 20.00    +0.043 H 
ATOM     95 H95  LIG A   1      -0.344  -0.528  -1.611  1.00 20.00    +0.029 H 
ATOM     96 H96  LIG A   1       0.638  -1.514  -0.545  1.00 20.00    +0.029 H 
ATOM     97 H97  LIG A   1      -1.567  -1.564   0.364  1.00 20.00    +0.043 H 
ATOM     98 H98  LIG A   1      -0.656  -0.509   1.445  1.00 20.00    +0.043 H 
ATOM     99 H99  LIG A   1      -2.754   0.412   0.900  1.00 20.00    +0.118 HD
ATOM    100 H100 LIG A   1      -2.491   0.304  -0.706  1.00 20.00    +0.118 HD
ENDROOT
TORSDOF 0
