MODEL 1
REMARK VINA RESULT:    -9.887      0.000      0.000
REMARK INTER + INTRA:          -9.887
REMARK INTER:                  -9.887
REMARK INTRA:                   0.000
REMARK UNBOUND:                 0.000
ROOT
ATOM      1 C1   LIG A   1      21.928  22.218  12.119  1.00 20.00    -0.044 C 
ATOM      2 C2   LIG A   1      20.909  21.684  11.071  1.00 20.00    +0.047 C 
ATOM      3 C3   LIG A   1      19.556  21.505  11.806  1.00 20.00    -0.044 C 
ATOM      4 C4   LIG A   1      20.767  22.814  10.005  1.00 20.00    -0.006 C 
ATOM      5 C5   LIG A   1      20.626  22.311   8.570  1.00 20.00    +0.058 C 
ATOM      6 O6   LIG A   1      19.950  23.298   7.778  1.00 20.00    -0.393 OA
ATOM      7 C7   LIG A   1      19.862  21.002   8.518  1.00 20.00    -0.006 C 
ATOM      8 C8   LIG A   1      20.619  19.886   9.287  1.00 20.00    +0.047 C 
ATOM      9 C9   LIG A   1      19.575  18.801   9.662  1.00 20.00    -0.044 C 
ATOM     10 C10  LIG A   1      21.628  19.234   8.301  1.00 20.00    -0.044 C 
ATOM     11 N11  LIG A   1      21.416  20.468  10.400  1.00 20.00    -0.144 NA
ATOM     12 O12  LIG A   1      21.766  19.454  11.354  1.00 20.00    -0.120 OA
ATOM     13 N13  LIG A   1      20.700  32.900  17.987  1.00 20.00    -0.330 NA
ATOM     14 C14  LIG A   1      19.824  32.228  17.033  1.00 20.00    -0.008 C 
ATOM     15 C15  LIG A   1      20.007  30.712  17.091  1.00 20.00    -0.040 C 
ATOM     16 C16  LIG A   1      19.093  30.008  16.082  1.00 20.00    -0.039 C 
ATOM     17 C17  LIG A   1      19.188  28.480  16.157  1.00 20.00    -0.005 C 
ATOM     18 N18  LIG A   1      20.530  28.017  15.805  1.00 20.00    -0.317 NA
ATOM     19 C19  LIG A   1      20.624  26.556  15.899  1.00 20.00    -0.003 C 
ATOM     20 C20  LIG A   1      22.042  26.106  15.539  1.00 20.00    -0.023 C 
ATOM     21 C21  LIG A   1      22.238  24.604  15.748  1.00 20.00    +0.016 C 
ATOM     22 N22  LIG A   1      21.407  23.820  14.841  1.00 20.00    -0.385 NA
ATOM     23 C23  LIG A   1      21.893  23.372  13.611  1.00 20.00    +0.034 A 
ATOM     24 C24  LIG A   1      22.990  23.930  12.950  1.00 20.00    -0.038 A 
ATOM     25 C25  LIG A   1      23.393  23.470  11.686  1.00 20.00    -0.049 A 
ATOM     26 C26  LIG A   1      22.690  22.454  11.028  1.00 20.00    +0.017 A 
ATOM     27 C27  LIG A   1      23.123  21.972   9.719  1.00 20.00    +0.134 A 
ATOM     28 C28  LIG A   1      24.182  22.261   8.881  1.00 20.00    -0.015 A 
ATOM     29 C29  LIG A   1      24.042  21.428   7.742  1.00 20.00    -0.015 A 
ATOM     30 C30  LIG A   1      22.902  20.676   7.937  1.00 20.00    +0.134 A 
ATOM     31 C31  LIG A   1      22.212  19.646   7.166  1.00 20.00    +0.017 A 
ATOM     32 C32  LIG A   1      22.822  19.054   6.054  1.00 20.00    -0.049 A 
ATOM     33 C33  LIG A   1      22.164  18.063   5.308  1.00 20.00    -0.038 A 
ATOM     34 C34  LIG A   1      20.868  17.652   5.628  1.00 20.00    +0.034 A 
ATOM     35 N35  LIG A   1      20.190  16.629   4.971  1.00 20.00    -0.385 NA
ATOM     36 C36  LIG A   1      20.593  16.130   3.660  1.00 20.00    +0.016 C 
ATOM     37 C37  LIG A   1      21.540  14.936   3.793  1.00 20.00    -0.023 C 
ATOM     38 C38  LIG A   1      20.857  13.681   4.345  1.00 20.00    -0.003 C 
ATOM     39 N39  LIG A   1      19.919  13.122   3.362  1.00 20.00    -0.317 NA
ATOM     40 C40  LIG A   1      19.163  11.989   3.900  1.00 20.00    -0.005 C 
ATOM     41 C41  LIG A   1      18.046  12.387   4.874  1.00 20.00    -0.039 C 
ATOM     42 C42  LIG A   1      17.014  13.330   4.244  1.00 20.00    -0.040 C 
ATOM     43 C43  LIG A   1      15.924  13.780   5.219  1.00 20.00    -0.008 C 
ATOM     44 N44  LIG A   1      15.076  12.685   5.679  1.00 20.00    -0.330 NA
ATOM     45 C45  LIG A   1      20.278  18.221   6.764  1.00 20.00    -0.038 A 
ATOM     46 C46  LIG A   1      20.930  19.208   7.515  1.00 20.00    -0.049 A 
ATOM     47 O47  LIG A   1      22.343  21.009   9.139  1.00 20.00    -0.456 OA
ATOM     48 C48  LIG A   1      21.563  21.925  11.667  1.00 20.00    -0.049 A 
ATOM     49 C49  LIG A   1      21.167  22.388  12.928  1.00 20.00    -0.038 A 
ATOM     50 H50  LIG A   1      21.626  23.206  12.488  1.00 20.00    +0.025 H 
ATOM     51 H51  LIG A   1      22.929  22.324  11.682  1.00 20.00    +0.025 H 
ATOM     52 H52  LIG A   1      22.008  21.563  12.994  1.00 20.00    +0.025 H 
ATOM     53 H53  LIG A   1      19.601  20.707  12.555  1.00 20.00    +0.025 H 
ATOM     54 H54  LIG A   1      19.283  22.424  12.339  1.00 20.00    +0.025 H 
ATOM     55 H55  LIG A   1      18.732  21.285  11.125  1.00 20.00    +0.025 H 
ATOM     56 H56  LIG A   1      19.917  23.465  10.255  1.00 20.00    +0.031 H 
ATOM     57 H57  LIG A   1      21.641  23.479  10.020  1.00 20.00    +0.031 H 
ATOM     58 H58  LIG A   1      21.618  22.180   8.122  1.00 20.00    +0.060 H 
ATOM     59 H59  LIG A   1      20.476  24.110   7.867  1.00 20.00    +0.210 HD
ATOM     60 H60  LIG A   1      18.857  21.163   8.928  1.00 20.00    +0.031 H 
ATOM     61 H61  LIG A   1      19.690  20.716   7.471  1.00 20.00    +0.031 H 
ATOM     62 H62  LIG A   1      18.999  18.499   8.778  1.00 20.00    +0.025 H 
ATOM     63 H63  LIG A   1      20.043  17.890  10.053  1.00 20.00    +0.025 H 
ATOM     64 H64  LIG A   1      18.857  19.157  10.406  1.00 20.00    +0.025 H 
ATOM     65 H65  LIG A   1      21.118  18.850   7.410  1.00 20.00    +0.025 H 
ATOM     66 H66  LIG A   1      22.154  18.388   8.758  1.00 20.00    +0.025 H 
ATOM     67 H67  LIG A   1      22.384  19.951   7.963  1.00 20.00    +0.025 H 
ATOM     68 H68  LIG A   1      20.520  32.538  18.924  1.00 20.00    +0.118 HD
ATOM     69 H69  LIG A   1      21.670  32.657  17.782  1.00 20.00    +0.118 HD
ATOM     70 H70  LIG A   1      20.045  32.600  16.027  1.00 20.00    +0.043 H 
ATOM     71 H71  LIG A   1      18.785  32.493  17.259  1.00 20.00    +0.043 H 
ATOM     72 H72  LIG A   1      19.781  30.350  18.102  1.00 20.00    +0.028 H 
ATOM     73 H73  LIG A   1      21.055  30.463  16.885  1.00 20.00    +0.028 H 
ATOM     74 H74  LIG A   1      18.053  30.298  16.273  1.00 20.00    +0.028 H 
ATOM     75 H75  LIG A   1      19.333  30.345  15.066  1.00 20.00    +0.028 H 
ATOM     76 H76  LIG A   1      18.451  28.049  15.468  1.00 20.00    +0.043 H 
ATOM     77 H77  LIG A   1      18.928  28.155  17.170  1.00 20.00    +0.043 H 
ATOM     78 H78  LIG A   1      20.745  28.302  14.848  1.00 20.00    +0.122 HD
ATOM     79 H79  LIG A   1      19.898  26.088  15.224  1.00 20.00    +0.043 H 
ATOM     80 H80  LIG A   1      20.392  26.238  16.923  1.00 20.00    +0.043 H 
ATOM     81 H81  LIG A   1      22.264  26.385  14.502  1.00 20.00    +0.030 H 
ATOM     82 H82  LIG A   1      22.764  26.637  16.173  1.00 20.00    +0.030 H 
ATOM     83 H83  LIG A   1      23.298  24.335  15.657  1.00 20.00    +0.049 H 
ATOM     84 H84  LIG A   1      21.956  24.350  16.777  1.00 20.00    +0.049 H 
ATOM     85 H85  LIG A   1      20.889  23.086  15.322  1.00 20.00    +0.160 HD
ATOM     86 H86  LIG A   1      23.564  24.734  13.399  1.00 20.00    +0.064 H 
ATOM     87 H87  LIG A   1      24.264  23.930  11.227  1.00 20.00    +0.063 H 
ATOM     88 H88  LIG A   1      24.966  22.980   9.065  1.00 20.00    +0.066 H 
ATOM     89 H89  LIG A   1      24.696  21.388   6.883  1.00 20.00    +0.066 H 
ATOM     90 H90  LIG A   1      23.825  19.343   5.753  1.00 20.00    +0.063 H 
ATOM     91 H91  LIG A   1      22.700  17.624   4.473  1.00 20.00    +0.064 H 
ATOM     92 H92  LIG A   1      19.179  16.695   5.075  1.00 20.00    +0.160 HD
ATOM     93 H93  LIG A   1      19.694  15.834   3.109  1.00 20.00    +0.049 H 
ATOM     94 H94  LIG A   1      21.056  16.923   3.060  1.00 20.00    +0.049 H 
ATOM     95 H95  LIG A   1      21.974  14.714   2.810  1.00 20.00    +0.030 H 
ATOM     96 H96  LIG A   1      22.379  15.191   4.451  1.00 20.00    +0.030 H 
ATOM     97 H97  LIG A   1      21.628  12.934   4.572  1.00 20.00    +0.043 H 
ATOM     98 H98  LIG A   1      20.353  13.928   5.284  1.00 20.00    +0.043 H 
ATOM     99 H99  LIG A   1      20.454  12.801   2.555  1.00 20.00    +0.122 HD
ATOM    100 H100 LIG A   1      18.704  11.462   3.054  1.00 20.00    +0.043 H 
ATOM    101 H101 LIG A   1      19.838  11.268   4.378  1.00 20.00    +0.043 H 
ATOM    102 H102 LIG A   1      18.468  12.849   5.774  1.00 20.00    +0.028 H 
ATOM    103 H103 LIG A   1      17.549  11.467   5.204  1.00 20.00    +0.028 H 
ATOM    104 H104 LIG A   1      16.556  12.845   3.373  1.00 20.00    +0.028 H 
ATOM    105 H105 LIG A   1      17.517  14.231   3.872  1.00 20.00    +0.028 H 
ATOM    106 H106 LIG A   1      16.374  14.277   6.086  1.00 20.00    +0.043 H 
ATOM    107 H107 LIG A   1      15.288  14.521   4.722  1.00 20.00    +0.043 H 
ATOM    108 H108 LIG A   1      14.711  12.176   4.876  1.00 20.00    +0.118 HD
ATOM    109 H109 LIG A   1      15.629  12.017   6.213  1.00 20.00    +0.118 HD
ATOM    110 H110 LIG A   1      19.290  17.896   7.082  1.00 20.00    +0.064 H 
ATOM    111 H111 LIG A   1      20.421  19.628   8.378  1.00 20.00    +0.063 H 
ATOM    112 H112 LIG A   1      20.974  21.146  11.187  1.00 20.00    +0.063 H 
ATOM    113 H113 LIG A   1      20.273  21.961  13.376  1.00 20.00    +0.064 H 
ENDROOT
TORSDOF 0
                                                                                                                    
ENDMDL
MODEL 2
REMARK VINA RESULT:    -9.786      1.927      2.413
REMARK INTER + INTRA:          -9.786
REMARK INTER:                  -9.786
REMARK INTRA:                   0.000
REMARK UNBOUND:                 0.000
ROOT
ATOM      1 C1   LIG A   1      22.618  20.766  11.582  1.00 20.00    -0.044 C 
ATOM      2 C2   LIG A   1      21.282  20.130  11.097  1.00 20.00    +0.047 C 
ATOM      3 C3   LIG A   1      20.420  19.873  12.359  1.00 20.00    -0.044 C 
ATOM      4 C4   LIG A   1      20.591  21.217  10.217  1.00 20.00    -0.006 C 
ATOM      5 C5   LIG A   1      19.863  20.665   8.993  1.00 20.00    +0.058 C 
ATOM      6 O6   LIG A   1      18.830  21.578   8.595  1.00 20.00    -0.393 OA
ATOM      7 C7   LIG A   1      19.261  19.303   9.278  1.00 20.00    -0.006 C 
ATOM      8 C8   LIG A   1      20.366  18.266   9.617  1.00 20.00    +0.047 C 
ATOM      9 C9   LIG A   1      19.688  17.119  10.412  1.00 20.00    -0.044 C 
ATOM     10 C10  LIG A   1      20.875  17.663   8.279  1.00 20.00    -0.044 C 
ATOM     11 N11  LIG A   1      21.529  18.936  10.260  1.00 20.00    -0.144 NA
ATOM     12 O12  LIG A   1      22.346  17.977  10.949  1.00 20.00    -0.120 OA
ATOM     13 N13  LIG A   1      23.318  31.487  17.465  1.00 20.00    -0.330 NA
ATOM     14 C14  LIG A   1      22.163  30.727  16.998  1.00 20.00    -0.008 C 
ATOM     15 C15  LIG A   1      22.469  29.230  16.956  1.00 20.00    -0.040 C 
ATOM     16 C16  LIG A   1      21.259  28.434  16.458  1.00 20.00    -0.039 C 
ATOM     17 C17  LIG A   1      21.495  26.920  16.470  1.00 20.00    -0.005 C 
ATOM     18 N18  LIG A   1      22.570  26.546  15.550  1.00 20.00    -0.317 NA
ATOM     19 C19  LIG A   1      22.809  25.099  15.580  1.00 20.00    -0.003 C 
ATOM     20 C20  LIG A   1      23.946  24.745  14.619  1.00 20.00    -0.023 C 
ATOM     21 C21  LIG A   1      24.332  23.267  14.706  1.00 20.00    +0.016 C 
ATOM     22 N22  LIG A   1      23.246  22.400  14.262  1.00 20.00    -0.385 NA
ATOM     23 C23  LIG A   1      23.164  21.954  12.941  1.00 20.00    +0.034 A 
ATOM     24 C24  LIG A   1      23.802  22.573  11.863  1.00 20.00    -0.038 A 
ATOM     25 C25  LIG A   1      23.632  22.109  10.549  1.00 20.00    -0.049 A 
ATOM     26 C26  LIG A   1      22.791  21.027  10.267  1.00 20.00    +0.017 A 
ATOM     27 C27  LIG A   1      22.628  20.541   8.899  1.00 20.00    +0.134 A 
ATOM     28 C28  LIG A   1      23.175  20.883   7.677  1.00 20.00    -0.015 A 
ATOM     29 C29  LIG A   1      22.605  20.012   6.716  1.00 20.00    -0.015 A 
ATOM     30 C30  LIG A   1      21.735  19.184   7.394  1.00 20.00    +0.134 A 
ATOM     31 C31  LIG A   1      20.856  18.085   7.006  1.00 20.00    +0.017 A 
ATOM     32 C32  LIG A   1      20.948  17.509   5.734  1.00 20.00    -0.049 A 
ATOM     33 C33  LIG A   1      20.105  16.452   5.354  1.00 20.00    -0.038 A 
ATOM     34 C34  LIG A   1      19.125  15.957   6.216  1.00 20.00    +0.034 A 
ATOM     35 N35  LIG A   1      18.307  14.869   5.925  1.00 20.00    -0.385 NA
ATOM     36 C36  LIG A   1      18.118  14.365   4.568  1.00 20.00    +0.016 C 
ATOM     37 C37  LIG A   1      19.115  13.248   4.254  1.00 20.00    -0.023 C 
ATOM     38 C38  LIG A   1      18.851  11.962   5.043  1.00 20.00    -0.003 C 
ATOM     39 N39  LIG A   1      17.619  11.308   4.580  1.00 20.00    -0.317 NA
ATOM     40 C40  LIG A   1      17.273  10.139   5.390  1.00 20.00    -0.005 C 
ATOM     41 C41  LIG A   1      16.682  10.480   6.764  1.00 20.00    -0.039 C 
ATOM     42 C42  LIG A   1      15.408  11.328   6.671  1.00 20.00    -0.040 C 
ATOM     43 C43  LIG A   1      14.838  11.724   8.035  1.00 20.00    -0.008 C 
ATOM     44 N44  LIG A   1      14.373  10.583   8.817  1.00 20.00    -0.330 NA
ATOM     45 C45  LIG A   1      19.063  16.512   7.501  1.00 20.00    -0.038 A 
ATOM     46 C46  LIG A   1      19.904  17.564   7.888  1.00 20.00    -0.049 A 
ATOM     47 O47  LIG A   1      21.749  19.509   8.721  1.00 20.00    -0.456 OA
ATOM     48 C48  LIG A   1      22.113  20.435  11.338  1.00 20.00    -0.049 A 
ATOM     49 C49  LIG A   1      22.288  20.902  12.647  1.00 20.00    -0.038 A 
ATOM     50 H50  LIG A   1      22.437  21.739  12.055  1.00 20.00    +0.025 H 
ATOM     51 H51  LIG A   1      23.306  20.933  10.744  1.00 20.00    +0.025 H 
ATOM     52 H52  LIG A   1      23.131  20.142  12.323  1.00 20.00    +0.025 H 
ATOM     53 H53  LIG A   1      20.857  19.101  13.002  1.00 20.00    +0.025 H 
ATOM     54 H54  LIG A   1      20.343  20.784  12.965  1.00 20.00    +0.025 H 
ATOM     55 H55  LIG A   1      19.398  19.574  12.117  1.00 20.00    +0.025 H 
ATOM     56 H56  LIG A   1      19.896  21.811  10.826  1.00 20.00    +0.031 H 
ATOM     57 H57  LIG A   1      21.326  21.944   9.844  1.00 20.00    +0.031 H 
ATOM     58 H58  LIG A   1      20.557  20.595   8.147  1.00 20.00    +0.060 H 
ATOM     59 H59  LIG A   1      19.276  22.428   8.446  1.00 20.00    +0.210 HD
ATOM     60 H60  LIG A   1      18.536  19.401  10.097  1.00 20.00    +0.031 H 
ATOM     61 H61  LIG A   1      18.662  18.976   8.417  1.00 20.00    +0.031 H 
ATOM     62 H62  LIG A   1      18.802  16.752   9.877  1.00 20.00    +0.025 H 
ATOM     63 H63  LIG A   1      20.351  16.256  10.545  1.00 20.00    +0.025 H 
ATOM     64 H64  LIG A   1      19.353  17.442  11.401  1.00 20.00    +0.025 H 
ATOM     65 H65  LIG A   1      20.051  17.219   7.708  1.00 20.00    +0.025 H 
ATOM     66 H66  LIG A   1      21.614  16.871   8.445  1.00 20.00    +0.025 H 
ATOM     67 H67  LIG A   1      21.341  18.423   7.643  1.00 20.00    +0.025 H 
ATOM     68 H68  LIG A   1      23.605  31.140  18.380  1.00 20.00    +0.118 HD
ATOM     69 H69  LIG A   1      24.109  31.311  16.845  1.00 20.00    +0.118 HD
ATOM     70 H70  LIG A   1      21.880  31.086  16.002  1.00 20.00    +0.043 H 
ATOM     71 H71  LIG A   1      21.317  30.922  17.667  1.00 20.00    +0.043 H 
ATOM     72 H72  LIG A   1      22.748  28.881  17.958  1.00 20.00    +0.028 H 
ATOM     73 H73  LIG A   1      23.330  29.053  16.300  1.00 20.00    +0.028 H 
ATOM     74 H74  LIG A   1      20.395  28.652  17.096  1.00 20.00    +0.028 H 
ATOM     75 H75  LIG A   1      20.992  28.760  15.445  1.00 20.00    +0.028 H 
ATOM     76 H76  LIG A   1      20.563  26.418  16.181  1.00 20.00    +0.043 H 
ATOM     77 H77  LIG A   1      21.742  26.604  17.490  1.00 20.00    +0.043 H 
ATOM     78 H78  LIG A   1      22.311  26.820  14.601  1.00 20.00    +0.122 HD
ATOM     79 H79  LIG A   1      21.896  24.561  15.298  1.00 20.00    +0.043 H 
ATOM     80 H80  LIG A   1      23.085  24.793  16.597  1.00 20.00    +0.043 H 
ATOM     81 H81  LIG A   1      23.659  25.010  13.595  1.00 20.00    +0.030 H 
ATOM     82 H82  LIG A   1      24.832  25.344  14.868  1.00 20.00    +0.030 H 
ATOM     83 H83  LIG A   1      25.256  23.074  14.148  1.00 20.00    +0.049 H 
ATOM     84 H84  LIG A   1      24.560  23.022  15.751  1.00 20.00    +0.049 H 
ATOM     85 H85  LIG A   1      23.057  21.643  14.917  1.00 20.00    +0.160 HD
ATOM     86 H86  LIG A   1      24.452  23.428  12.013  1.00 20.00    +0.064 H 
ATOM     87 H87  LIG A   1      24.167  22.618   9.751  1.00 20.00    +0.063 H 
ATOM     88 H88  LIG A   1      23.900  21.663   7.497  1.00 20.00    +0.066 H 
ATOM     89 H89  LIG A   1      22.807  19.996   5.654  1.00 20.00    +0.066 H 
ATOM     90 H90  LIG A   1      21.684  17.862   5.018  1.00 20.00    +0.063 H 
ATOM     91 H91  LIG A   1      20.243  16.031   4.363  1.00 20.00    +0.064 H 
ATOM     92 H92  LIG A   1      17.447  14.864   6.471  1.00 20.00    +0.160 HD
ATOM     93 H93  LIG A   1      17.094  13.989   4.476  1.00 20.00    +0.049 H 
ATOM     94 H94  LIG A   1      18.201  15.172   3.831  1.00 20.00    +0.049 H 
ATOM     95 H95  LIG A   1      19.079  13.030   3.178  1.00 20.00    +0.030 H 
ATOM     96 H96  LIG A   1      20.137  13.581   4.468  1.00 20.00    +0.030 H 
ATOM     97 H97  LIG A   1      19.697  11.280   4.894  1.00 20.00    +0.043 H 
ATOM     98 H98  LIG A   1      18.802  12.197   6.110  1.00 20.00    +0.043 H 
ATOM     99 H99  LIG A   1      17.759  11.005   3.616  1.00 20.00    +0.122 HD
ATOM    100 H100 LIG A   1      16.527   9.556   4.835  1.00 20.00    +0.043 H 
ATOM    101 H101 LIG A   1      18.144   9.482   5.509  1.00 20.00    +0.043 H 
ATOM    102 H102 LIG A   1      17.426  10.997   7.383  1.00 20.00    +0.028 H 
ATOM    103 H103 LIG A   1      16.459   9.536   7.274  1.00 20.00    +0.028 H 
ATOM    104 H104 LIG A   1      14.648  10.787   6.093  1.00 20.00    +0.028 H 
ATOM    105 H105 LIG A   1      15.620  12.253   6.120  1.00 20.00    +0.028 H 
ATOM    106 H106 LIG A   1      15.588  12.276   8.613  1.00 20.00    +0.043 H 
ATOM    107 H107 LIG A   1      13.992  12.402   7.881  1.00 20.00    +0.043 H 
ATOM    108 H108 LIG A   1      13.728  10.027   8.258  1.00 20.00    +0.118 HD
ATOM    109 H109 LIG A   1      15.156   9.973   9.041  1.00 20.00    +0.118 HD
ATOM    110 H110 LIG A   1      18.351  16.125   8.225  1.00 20.00    +0.064 H 
ATOM    111 H111 LIG A   1      19.803  17.970   8.892  1.00 20.00    +0.063 H 
ATOM    112 H112 LIG A   1      21.434  19.601  11.168  1.00 20.00    +0.063 H 
ATOM    113 H113 LIG A   1      21.725  20.423  13.445  1.00 20.00    +0.064 H 
ENDROOT
TORSDOF 0
                                                                                                                    
ENDMDL
MODEL 3
REMARK VINA RESULT:    -9.659      1.944     13.215
REMARK INTER + INTRA:          -9.659
REMARK INTER:                  -9.659
REMARK INTRA:                   0.000
REMARK UNBOUND:                 0.000
ROOT
ATOM      1 C1   LIG A   1      21.830  18.933   7.391  1.00 20.00    -0.044 C 
ATOM      2 C2   LIG A   1      20.852  19.810   8.226  1.00 20.00    +0.047 C 
ATOM      3 C3   LIG A   1      19.792  20.367   7.244  1.00 20.00    -0.044 C 
ATOM      4 C4   LIG A   1      20.160  18.834   9.228  1.00 20.00    -0.006 C 
ATOM      5 C5   LIG A   1      19.916  19.426  10.615  1.00 20.00    +0.058 C 
ATOM      6 O6   LIG A   1      18.824  18.739  11.245  1.00 20.00    -0.393 OA
ATOM      7 C7   LIG A   1      19.610  20.908  10.535  1.00 20.00    -0.006 C 
ATOM      8 C8   LIG A   1      20.813  21.693   9.945  1.00 20.00    +0.047 C 
ATOM      9 C9   LIG A   1      20.257  23.030   9.389  1.00 20.00    -0.044 C 
ATOM     10 C10  LIG A   1      21.769  22.043  11.119  1.00 20.00    -0.044 C 
ATOM     11 N11  LIG A   1      21.582  20.837   9.001  1.00 20.00    -0.144 NA
ATOM     12 O12  LIG A   1      22.408  21.643   8.149  1.00 20.00    -0.120 OA
ATOM     13 N13  LIG A   1      18.426   8.900   1.243  1.00 20.00    -0.330 NA
ATOM     14 C14  LIG A   1      17.643   9.858   2.017  1.00 20.00    -0.008 C 
ATOM     15 C15  LIG A   1      18.303  11.236   2.018  1.00 20.00    -0.040 C 
ATOM     16 C16  LIG A   1      17.485  12.239   2.838  1.00 20.00    -0.039 C 
ATOM     17 C17  LIG A   1      18.071  13.655   2.806  1.00 20.00    -0.005 C 
ATOM     18 N18  LIG A   1      19.398  13.691   3.420  1.00 20.00    -0.317 NA
ATOM     19 C19  LIG A   1      19.965  15.043   3.367  1.00 20.00    -0.003 C 
ATOM     20 C20  LIG A   1      21.356  15.043   4.005  1.00 20.00    -0.023 C 
ATOM     21 C21  LIG A   1      22.055  16.397   3.859  1.00 20.00    +0.016 C 
ATOM     22 N22  LIG A   1      21.357  17.444   4.597  1.00 20.00    -0.385 NA
ATOM     23 C23  LIG A   1      21.717  17.777   5.905  1.00 20.00    +0.034 A 
ATOM     24 C24  LIG A   1      22.434  16.937   6.760  1.00 20.00    -0.038 A 
ATOM     25 C25  LIG A   1      22.713  17.308   8.085  1.00 20.00    -0.049 A 
ATOM     26 C26  LIG A   1      22.256  18.524   8.607  1.00 20.00    +0.017 A 
ATOM     27 C27  LIG A   1      22.562  18.909   9.982  1.00 20.00    +0.134 A 
ATOM     28 C28  LIG A   1      23.296  18.345  11.007  1.00 20.00    -0.015 A 
ATOM     29 C29  LIG A   1      23.212  19.234  12.108  1.00 20.00    -0.015 A 
ATOM     30 C30  LIG A   1      22.428  20.294  11.705  1.00 20.00    +0.134 A 
ATOM     31 C31  LIG A   1      21.966  21.525  12.340  1.00 20.00    +0.017 A 
ATOM     32 C32  LIG A   1      22.508  21.949  13.559  1.00 20.00    -0.049 A 
ATOM     33 C33  LIG A   1      22.068  23.132  14.175  1.00 20.00    -0.038 A 
ATOM     34 C34  LIG A   1      21.055  23.912  13.614  1.00 20.00    +0.034 A 
ATOM     35 N35  LIG A   1      20.623  25.127  14.139  1.00 20.00    -0.385 NA
ATOM     36 C36  LIG A   1      20.906  25.537  15.511  1.00 20.00    +0.016 C 
ATOM     37 C37  LIG A   1      22.190  26.367  15.583  1.00 20.00    -0.023 C 
ATOM     38 C38  LIG A   1      22.057  27.744  14.926  1.00 20.00    -0.003 C 
ATOM     39 N39  LIG A   1      21.176  28.616  15.714  1.00 20.00    -0.317 NA
ATOM     40 C40  LIG A   1      20.933  29.901  15.055  1.00 20.00    -0.005 C 
ATOM     41 C41  LIG A   1      19.955  29.826  13.876  1.00 20.00    -0.039 C 
ATOM     42 C42  LIG A   1      18.577  29.284  14.278  1.00 20.00    -0.040 C 
ATOM     43 C43  LIG A   1      17.608  29.152  13.102  1.00 20.00    -0.008 C 
ATOM     44 N44  LIG A   1      17.253  30.433  12.500  1.00 20.00    -0.330 NA
ATOM     45 C45  LIG A   1      20.542  23.502  12.376  1.00 20.00    -0.038 A 
ATOM     46 C46  LIG A   1      20.979  22.325  11.753  1.00 20.00    -0.049 A 
ATOM     47 O47  LIG A   1      22.032  20.095  10.412  1.00 20.00    -0.456 OA
ATOM     48 C48  LIG A   1      21.498  19.347   7.768  1.00 20.00    -0.049 A 
ATOM     49 C49  LIG A   1      21.224  18.971   6.447  1.00 20.00    -0.038 A 
ATOM     50 H50  LIG A   1      21.308  18.073   6.956  1.00 20.00    +0.025 H 
ATOM     51 H51  LIG A   1      22.644  18.540   8.014  1.00 20.00    +0.025 H 
ATOM     52 H52  LIG A   1      22.278  19.487   6.558  1.00 20.00    +0.025 H 
ATOM     53 H53  LIG A   1      20.229  21.074   6.529  1.00 20.00    +0.025 H 
ATOM     54 H54  LIG A   1      19.349  19.555   6.654  1.00 20.00    +0.025 H 
ATOM     55 H55  LIG A   1      18.966  20.867   7.753  1.00 20.00    +0.025 H 
ATOM     56 H56  LIG A   1      19.212  18.470   8.807  1.00 20.00    +0.031 H 
ATOM     57 H57  LIG A   1      20.765  17.929   9.375  1.00 20.00    +0.031 H 
ATOM     58 H58  LIG A   1      20.794  19.261  11.250  1.00 20.00    +0.060 H 
ATOM     59 H59  LIG A   1      19.074  17.800  11.249  1.00 20.00    +0.210 HD
ATOM     60 H60  LIG A   1      18.703  21.050   9.933  1.00 20.00    +0.031 H 
ATOM     61 H61  LIG A   1      19.342  21.285  11.532  1.00 20.00    +0.031 H 
ATOM     62 H62  LIG A   1      19.649  23.540  10.147  1.00 20.00    +0.025 H 
ATOM     63 H63  LIG A   1      21.055  23.728   9.109  1.00 20.00    +0.025 H 
ATOM     64 H64  LIG A   1      19.619  22.881   8.513  1.00 20.00    +0.025 H 
ATOM     65 H65  LIG A   1      21.247  22.610  11.898  1.00 20.00    +0.025 H 
ATOM     66 H66  LIG A   1      22.613  22.659  10.786  1.00 20.00    +0.025 H 
ATOM     67 H67  LIG A   1      22.181  21.144  11.588  1.00 20.00    +0.025 H 
ATOM     68 H68  LIG A   1      18.551   9.254   0.295  1.00 20.00    +0.118 HD
ATOM     69 H69  LIG A   1      19.365   8.837   1.638  1.00 20.00    +0.118 HD
ATOM     70 H70  LIG A   1      17.539   9.485   3.042  1.00 20.00    +0.043 H 
ATOM     71 H71  LIG A   1      16.636   9.921   1.589  1.00 20.00    +0.043 H 
ATOM     72 H72  LIG A   1      18.400  11.600   0.987  1.00 20.00    +0.028 H 
ATOM     73 H73  LIG A   1      19.317  11.154   2.429  1.00 20.00    +0.028 H 
ATOM     74 H74  LIG A   1      16.463  12.280   2.443  1.00 20.00    +0.028 H 
ATOM     75 H75  LIG A   1      17.408  11.893   3.876  1.00 20.00    +0.028 H 
ATOM     76 H76  LIG A   1      17.391  14.327   3.343  1.00 20.00    +0.043 H 
ATOM     77 H77  LIG A   1      18.125  13.995   1.765  1.00 20.00    +0.043 H 
ATOM     78 H78  LIG A   1      19.325  13.400   4.396  1.00 20.00    +0.122 HD
ATOM     79 H79  LIG A   1      19.310  15.747   3.894  1.00 20.00    +0.043 H 
ATOM     80 H80  LIG A   1      20.045  15.368   2.322  1.00 20.00    +0.043 H 
ATOM     81 H81  LIG A   1      21.277  14.760   5.061  1.00 20.00    +0.030 H 
ATOM     82 H82  LIG A   1      21.980  14.283   3.516  1.00 20.00    +0.030 H 
ATOM     83 H83  LIG A   1      23.107  16.324   4.160  1.00 20.00    +0.049 H 
ATOM     84 H84  LIG A   1      22.068  16.675   2.799  1.00 20.00    +0.049 H 
ATOM     85 H85  LIG A   1      21.200  18.279   4.035  1.00 20.00    +0.160 HD
ATOM     86 H86  LIG A   1      22.798  15.973   6.421  1.00 20.00    +0.064 H 
ATOM     87 H87  LIG A   1      23.290  16.622   8.699  1.00 20.00    +0.063 H 
ATOM     88 H88  LIG A   1      23.832  17.409  10.969  1.00 20.00    +0.066 H 
ATOM     89 H89  LIG A   1      23.669  19.109  13.080  1.00 20.00    +0.066 H 
ATOM     90 H90  LIG A   1      23.291  21.376  14.046  1.00 20.00    +0.063 H 
ATOM     91 H91  LIG A   1      22.546  23.421  15.106  1.00 20.00    +0.064 H 
ATOM     92 H92  LIG A   1      19.683  25.375  13.839  1.00 20.00    +0.160 HD
ATOM     93 H93  LIG A   1      20.060  26.126  15.880  1.00 20.00    +0.049 H 
ATOM     94 H94  LIG A   1      20.972  24.670  16.179  1.00 20.00    +0.049 H 
ATOM     95 H95  LIG A   1      22.477  26.490  16.635  1.00 20.00    +0.030 H 
ATOM     96 H96  LIG A   1      23.014  25.831  15.099  1.00 20.00    +0.030 H 
ATOM     97 H97  LIG A   1      23.053  28.200  14.866  1.00 20.00    +0.043 H 
ATOM     98 H98  LIG A   1      21.690  27.622  13.903  1.00 20.00    +0.043 H 
ATOM     99 H99  LIG A   1      21.620  28.792  16.615  1.00 20.00    +0.122 HD
ATOM    100 H100 LIG A   1      20.512  30.586  15.802  1.00 20.00    +0.043 H 
ATOM    101 H101 LIG A   1      21.880  30.351  14.729  1.00 20.00    +0.043 H 
ATOM    102 H102 LIG A   1      20.372  29.212  13.070  1.00 20.00    +0.028 H 
ATOM    103 H103 LIG A   1      19.847  30.838  13.468  1.00 20.00    +0.028 H 
ATOM    104 H104 LIG A   1      18.139  29.931  15.049  1.00 20.00    +0.028 H 
ATOM    105 H105 LIG A   1      18.689  28.291  14.728  1.00 20.00    +0.028 H 
ATOM    106 H106 LIG A   1      18.033  28.497  12.332  1.00 20.00    +0.043 H 
ATOM    107 H107 LIG A   1      16.688  28.672  13.454  1.00 20.00    +0.043 H 
ATOM    108 H108 LIG A   1      16.922  31.069  13.224  1.00 20.00    +0.118 HD
ATOM    109 H109 LIG A   1      18.080  30.868  12.095  1.00 20.00    +0.118 HD
ATOM    110 H110 LIG A   1      19.788  24.103  11.876  1.00 20.00    +0.064 H 
ATOM    111 H111 LIG A   1      20.537  22.044  10.801  1.00 20.00    +0.063 H 
ATOM    112 H112 LIG A   1      21.106  20.294   8.133  1.00 20.00    +0.063 H 
ATOM    113 H113 LIG A   1      20.613  19.634   5.838  1.00 20.00    +0.064 H 
ENDROOT
TORSDOF 0
                                                                                                                    
ENDMDL
MODEL 4
REMARK VINA RESULT:    -9.570      1.886     13.308
REMARK INTER + INTRA:          -9.570
REMARK INTER:                  -9.570
REMARK INTRA:                   0.000
REMARK UNBOUND:                 0.000
ROOT
ATOM      1 C1   LIG A   1      21.791  21.241   8.657  1.00 20.00    -0.044 C 
ATOM      2 C2   LIG A   1      20.866  21.950   9.689  1.00 20.00    +0.047 C 
ATOM      3 C3   LIG A   1      19.569  22.343   8.938  1.00 20.00    -0.044 C 
ATOM      4 C4   LIG A   1      20.529  20.873  10.765  1.00 20.00    -0.006 C 
ATOM      5 C5   LIG A   1      20.463  21.411  12.194  1.00 20.00    +0.058 C 
ATOM      6 O6   LIG A   1      19.626  20.560  12.990  1.00 20.00    -0.393 OA
ATOM      7 C7   LIG A   1      19.928  22.829  12.224  1.00 20.00    -0.006 C 
ATOM      8 C8   LIG A   1      20.866  23.794  11.450  1.00 20.00    +0.047 C 
ATOM      9 C9   LIG A   1      20.022  25.033  11.053  1.00 20.00    -0.044 C 
ATOM     10 C10  LIG A   1      21.963  24.280  12.439  1.00 20.00    -0.044 C 
ATOM     11 N11  LIG A   1      21.565  23.073  10.351  1.00 20.00    -0.144 NA
ATOM     12 O12  LIG A   1      22.086  24.002   9.390  1.00 20.00    -0.120 OA
ATOM     13 N13  LIG A   1      18.844  10.841   2.893  1.00 20.00    -0.330 NA
ATOM     14 C14  LIG A   1      18.084  11.661   3.832  1.00 20.00    -0.008 C 
ATOM     15 C15  LIG A   1      18.518  13.125   3.759  1.00 20.00    -0.040 C 
ATOM     16 C16  LIG A   1      17.727  13.984   4.751  1.00 20.00    -0.039 C 
ATOM     17 C17  LIG A   1      18.076  15.474   4.661  1.00 20.00    -0.005 C 
ATOM     18 N18  LIG A   1      19.474  15.711   5.021  1.00 20.00    -0.317 NA
ATOM     19 C19  LIG A   1      19.811  17.135   4.912  1.00 20.00    -0.003 C 
ATOM     20 C20  LIG A   1      21.281  17.346   5.281  1.00 20.00    -0.023 C 
ATOM     21 C21  LIG A   1      21.727  18.792   5.057  1.00 20.00    +0.016 C 
ATOM     22 N22  LIG A   1      21.031  19.715   5.948  1.00 20.00    -0.385 NA
ATOM     23 C23  LIG A   1      21.575  20.091   7.177  1.00 20.00    +0.034 A 
ATOM     24 C24  LIG A   1      22.558  19.366   7.855  1.00 20.00    -0.038 A 
ATOM     25 C25  LIG A   1      23.022  19.768   9.118  1.00 20.00    -0.049 A 
ATOM     26 C26  LIG A   1      22.494  20.894   9.758  1.00 20.00    +0.017 A 
ATOM     27 C27  LIG A   1      22.991  21.314  11.066  1.00 20.00    +0.134 A 
ATOM     28 C28  LIG A   1      23.980  20.863  11.918  1.00 20.00    -0.015 A 
ATOM     29 C29  LIG A   1      23.972  21.721  13.045  1.00 20.00    -0.015 A 
ATOM     30 C30  LIG A   1      22.975  22.650  12.831  1.00 20.00    +0.134 A 
ATOM     31 C31  LIG A   1      22.461  23.791  13.584  1.00 20.00    +0.017 A 
ATOM     32 C32  LIG A   1      23.152  24.286  14.696  1.00 20.00    -0.049 A 
ATOM     33 C33  LIG A   1      22.662  25.383  15.424  1.00 20.00    -0.038 A 
ATOM     34 C34  LIG A   1      21.456  26.000  15.087  1.00 20.00    +0.034 A 
ATOM     35 N35  LIG A   1      20.953  27.130  15.725  1.00 20.00    -0.385 NA
ATOM     36 C36  LIG A   1      21.423  27.571  17.035  1.00 20.00    +0.016 C 
ATOM     37 C37  LIG A   1      22.557  28.588  16.898  1.00 20.00    -0.023 C 
ATOM     38 C38  LIG A   1      22.098  29.933  16.326  1.00 20.00    -0.003 C 
ATOM     39 N39  LIG A   1      21.259  30.653  17.293  1.00 20.00    -0.317 NA
ATOM     40 C40  LIG A   1      20.706  31.889  16.736  1.00 20.00    -0.005 C 
ATOM     41 C41  LIG A   1      19.546  31.671  15.755  1.00 20.00    -0.039 C 
ATOM     42 C42  LIG A   1      18.367  30.921  16.386  1.00 20.00    -0.040 C 
ATOM     43 C43  LIG A   1      17.225  30.648  15.404  1.00 20.00    -0.008 C 
ATOM     44 N44  LIG A   1      16.575  31.863  14.924  1.00 20.00    -0.330 NA
ATOM     45 C45  LIG A   1      20.788  25.524  13.952  1.00 20.00    -0.038 A 
ATOM     46 C46  LIG A   1      21.273  24.432  13.218  1.00 20.00    -0.049 A 
ATOM     47 O47  LIG A   1      22.378  22.400  11.628  1.00 20.00    -0.456 OA
ATOM     48 C48  LIG A   1      21.476  21.596   9.102  1.00 20.00    -0.049 A 
ATOM     49 C49  LIG A   1      21.019  21.190   7.843  1.00 20.00    -0.038 A 
ATOM     50 H50  LIG A   1      21.331  20.313   8.295  1.00 20.00    +0.025 H 
ATOM     51 H51  LIG A   1      22.756  20.975   9.105  1.00 20.00    +0.025 H 
ATOM     52 H52  LIG A   1      21.985  21.863   7.776  1.00 20.00    +0.025 H 
ATOM     53 H53  LIG A   1      19.752  23.114   8.181  1.00 20.00    +0.025 H 
ATOM     54 H54  LIG A   1      19.150  21.476   8.413  1.00 20.00    +0.025 H 
ATOM     55 H55  LIG A   1      18.787  22.706   9.609  1.00 20.00    +0.025 H 
ATOM     56 H56  LIG A   1      19.585  20.370  10.514  1.00 20.00    +0.031 H 
ATOM     57 H57  LIG A   1      21.281  20.071  10.767  1.00 20.00    +0.031 H 
ATOM     58 H58  LIG A   1      21.460  21.380  12.650  1.00 20.00    +0.060 H 
ATOM     59 H59  LIG A   1      20.010  19.671  12.915  1.00 20.00    +0.210 HD
ATOM     60 H60  LIG A   1      18.913  22.833  11.805  1.00 20.00    +0.031 H 
ATOM     61 H61  LIG A   1      19.798  23.153  13.265  1.00 20.00    +0.031 H 
ATOM     62 H62  LIG A   1      19.497  25.437  11.928  1.00 20.00    +0.025 H 
ATOM     63 H63  LIG A   1      20.638  25.848  10.656  1.00 20.00    +0.025 H 
ATOM     64 H64  LIG A   1      19.260  24.792  10.306  1.00 20.00    +0.025 H 
ATOM     65 H65  LIG A   1      21.516  24.755  13.321  1.00 20.00    +0.025 H 
ATOM     66 H66  LIG A   1      22.626  25.021  11.978  1.00 20.00    +0.025 H 
ATOM     67 H67  LIG A   1      22.586  23.452  12.792  1.00 20.00    +0.025 H 
ATOM     68 H68  LIG A   1      18.734  11.216   1.951  1.00 20.00    +0.118 HD
ATOM     69 H69  LIG A   1      19.839  10.921   3.105  1.00 20.00    +0.118 HD
ATOM     70 H70  LIG A   1      18.232  11.271   4.844  1.00 20.00    +0.043 H 
ATOM     71 H71  LIG A   1      17.018  11.571   3.599  1.00 20.00    +0.043 H 
ATOM     72 H72  LIG A   1      18.364  13.507   2.742  1.00 20.00    +0.028 H 
ATOM     73 H73  LIG A   1      19.592  13.199   3.973  1.00 20.00    +0.028 H 
ATOM     74 H74  LIG A   1      16.655  13.870   4.553  1.00 20.00    +0.028 H 
ATOM     75 H75  LIG A   1      17.899  13.624   5.773  1.00 20.00    +0.028 H 
ATOM     76 H76  LIG A   1      17.415  16.030   5.338  1.00 20.00    +0.043 H 
ATOM     77 H77  LIG A   1      17.882  15.825   3.641  1.00 20.00    +0.043 H 
ATOM     78 H78  LIG A   1      19.630  15.406   5.983  1.00 20.00    +0.122 HD
ATOM     79 H79  LIG A   1      19.168  17.725   5.575  1.00 20.00    +0.043 H 
ATOM     80 H80  LIG A   1      19.644  17.475   3.882  1.00 20.00    +0.043 H 
ATOM     81 H81  LIG A   1      21.445  17.047   6.323  1.00 20.00    +0.030 H 
ATOM     82 H82  LIG A   1      21.909  16.695   4.659  1.00 20.00    +0.030 H 
ATOM     83 H83  LIG A   1      22.816  18.881   5.156  1.00 20.00    +0.049 H 
ATOM     84 H84  LIG A   1      21.499  19.076   4.023  1.00 20.00    +0.049 H 
ATOM     85 H85  LIG A   1      20.647  20.519   5.454  1.00 20.00    +0.160 HD
ATOM     86 H86  LIG A   1      22.994  18.472   7.421  1.00 20.00    +0.064 H 
ATOM     87 H87  LIG A   1      23.801  19.175   9.591  1.00 20.00    +0.063 H 
ATOM     88 H88  LIG A   1      24.635  20.021  11.748  1.00 20.00    +0.066 H 
ATOM     89 H89  LIG A   1      24.616  21.662  13.911  1.00 20.00    +0.066 H 
ATOM     90 H90  LIG A   1      24.090  23.838  15.010  1.00 20.00    +0.063 H 
ATOM     91 H91  LIG A   1      23.257  25.736  16.260  1.00 20.00    +0.064 H 
ATOM     92 H92  LIG A   1      19.946  27.232  15.613  1.00 20.00    +0.160 HD
ATOM     93 H93  LIG A   1      20.582  28.019  17.574  1.00 20.00    +0.049 H 
ATOM     94 H94  LIG A   1      21.743  26.720  17.649  1.00 20.00    +0.049 H 
ATOM     95 H95  LIG A   1      23.015  28.747  17.883  1.00 20.00    +0.030 H 
ATOM     96 H96  LIG A   1      23.348  28.189  16.252  1.00 20.00    +0.030 H 
ATOM     97 H97  LIG A   1      22.984  30.538  16.099  1.00 20.00    +0.043 H 
ATOM     98 H98  LIG A   1      21.567  29.762  15.385  1.00 20.00    +0.043 H 
ATOM     99 H99  LIG A   1      21.833  30.890  18.103  1.00 20.00    +0.122 HD
ATOM    100 H100 LIG A   1      20.335  32.496  17.572  1.00 20.00    +0.043 H 
ATOM    101 H101 LIG A   1      21.496  32.482  16.257  1.00 20.00    +0.043 H 
ATOM    102 H102 LIG A   1      19.893  31.134  14.865  1.00 20.00    +0.028 H 
ATOM    103 H103 LIG A   1      19.213  32.657  15.411  1.00 20.00    +0.028 H 
ATOM    104 H104 LIG A   1      17.989  31.487  17.247  1.00 20.00    +0.028 H 
ATOM    105 H105 LIG A   1      18.709  29.953  16.772  1.00 20.00    +0.028 H 
ATOM    106 H106 LIG A   1      17.592  30.071  14.547  1.00 20.00    +0.043 H 
ATOM    107 H107 LIG A   1      16.470  30.029  15.903  1.00 20.00    +0.043 H 
ATOM    108 H108 LIG A   1      16.293  32.435  15.718  1.00 20.00    +0.118 HD
ATOM    109 H109 LIG A   1      17.236  32.422  14.389  1.00 20.00    +0.118 HD
ATOM    110 H110 LIG A   1      19.872  26.004  13.620  1.00 20.00    +0.064 H 
ATOM    111 H111 LIG A   1      20.707  24.092  12.354  1.00 20.00    +0.063 H 
ATOM    112 H112 LIG A   1      21.021  22.469   9.567  1.00 20.00    +0.063 H 
ATOM    113 H113 LIG A   1      20.212  21.754   7.381  1.00 20.00    +0.064 H 
ENDROOT
TORSDOF 0
                                                                                                                    
ENDMDL
MODEL 5
REMARK VINA RESULT:    -9.437      3.685     14.014
REMARK INTER + INTRA:          -9.437
REMARK INTER:                  -9.437
REMARK INTRA:                   0.000
REMARK UNBOUND:                 0.000
ROOT
ATOM      1 C1   LIG A   1      21.008  24.629  10.863  1.00 20.00    -0.044 C 
ATOM      2 C2   LIG A   1      20.224  24.649  12.208  1.00 20.00    +0.047 C 
ATOM      3 C3   LIG A   1      18.924  23.835  11.986  1.00 20.00    -0.044 C 
ATOM      4 C4   LIG A   1      21.128  23.901  13.236  1.00 20.00    -0.006 C 
ATOM      5 C5   LIG A   1      21.110  24.498  14.642  1.00 20.00    +0.058 C 
ATOM      6 O6   LIG A   1      21.460  23.488  15.598  1.00 20.00    -0.393 OA
ATOM      7 C7   LIG A   1      19.747  25.072  14.978  1.00 20.00    -0.006 C 
ATOM      8 C8   LIG A   1      19.381  26.236  14.018  1.00 20.00    +0.047 C 
ATOM      9 C9   LIG A   1      17.837  26.382  14.045  1.00 20.00    -0.044 C 
ATOM     10 C10  LIG A   1      19.979  27.542  14.609  1.00 20.00    -0.044 C 
ATOM     11 N11  LIG A   1      20.016  26.033  12.687  1.00 20.00    -0.144 NA
ATOM     12 O12  LIG A   1      19.367  26.836  11.690  1.00 20.00    -0.120 OA
ATOM     13 N13  LIG A   1      25.192  14.405   5.570  1.00 20.00    -0.330 NA
ATOM     14 C14  LIG A   1      24.399  14.599   6.780  1.00 20.00    -0.008 C 
ATOM     15 C15  LIG A   1      23.563  15.876   6.692  1.00 20.00    -0.040 C 
ATOM     16 C16  LIG A   1      22.738  16.083   7.966  1.00 20.00    -0.039 C 
ATOM     17 C17  LIG A   1      21.827  17.313   7.893  1.00 20.00    -0.005 C 
ATOM     18 N18  LIG A   1      22.609  18.543   7.772  1.00 20.00    -0.317 NA
ATOM     19 C19  LIG A   1      21.733  19.716   7.679  1.00 20.00    -0.003 C 
ATOM     20 C20  LIG A   1      22.580  20.982   7.539  1.00 20.00    -0.023 C 
ATOM     21 C21  LIG A   1      21.721  22.226   7.303  1.00 20.00    +0.016 C 
ATOM     22 N22  LIG A   1      20.877  22.523   8.456  1.00 20.00    -0.385 NA
ATOM     23 C23  LIG A   1      21.292  23.410   9.452  1.00 20.00    +0.034 A 
ATOM     24 C24  LIG A   1      22.623  23.762   9.685  1.00 20.00    -0.038 A 
ATOM     25 C25  LIG A   1      22.979  24.615  10.742  1.00 20.00    -0.049 A 
ATOM     26 C26  LIG A   1      22.014  25.119  11.621  1.00 20.00    +0.017 A 
ATOM     27 C27  LIG A   1      22.390  26.016  12.711  1.00 20.00    +0.134 A 
ATOM     28 C28  LIG A   1      23.575  26.592  13.128  1.00 20.00    -0.015 A 
ATOM     29 C29  LIG A   1      23.267  27.385  14.262  1.00 20.00    -0.015 A 
ATOM     30 C30  LIG A   1      21.912  27.252  14.485  1.00 20.00    +0.134 A 
ATOM     31 C31  LIG A   1      20.979  27.799  15.466  1.00 20.00    +0.017 A 
ATOM     32 C32  LIG A   1      21.360  28.846  16.312  1.00 20.00    -0.049 A 
ATOM     33 C33  LIG A   1      20.467  29.376  17.257  1.00 20.00    -0.038 A 
ATOM     34 C34  LIG A   1      19.178  28.860  17.410  1.00 20.00    +0.034 A 
ATOM     35 N35  LIG A   1      18.225  29.384  18.279  1.00 20.00    -0.385 NA
ATOM     36 C36  LIG A   1      18.571  30.277  19.382  1.00 20.00    +0.016 C 
ATOM     37 C37  LIG A   1      18.472  31.742  18.954  1.00 20.00    -0.023 C 
ATOM     38 C38  LIG A   1      17.033  32.201  18.695  1.00 20.00    -0.003 C 
ATOM     39 N39  LIG A   1      16.274  32.276  19.950  1.00 20.00    -0.317 NA
ATOM     40 C40  LIG A   1      14.863  32.598  19.727  1.00 20.00    -0.005 C 
ATOM     41 C41  LIG A   1      14.030  31.427  19.189  1.00 20.00    -0.039 C 
ATOM     42 C42  LIG A   1      14.050  30.206  20.117  1.00 20.00    -0.040 C 
ATOM     43 C43  LIG A   1      13.268  29.011  19.567  1.00 20.00    -0.008 C 
ATOM     44 N44  LIG A   1      11.836  29.265  19.448  1.00 20.00    -0.330 NA
ATOM     45 C45  LIG A   1      18.790  27.837  16.536  1.00 20.00    -0.038 A 
ATOM     46 C46  LIG A   1      19.675  27.306  15.587  1.00 20.00    -0.049 A 
ATOM     47 O47  LIG A   1      21.381  26.418  13.542  1.00 20.00    -0.456 OA
ATOM     48 C48  LIG A   1      20.685  24.731  11.419  1.00 20.00    -0.049 A 
ATOM     49 C49  LIG A   1      20.337  23.881  10.362  1.00 20.00    -0.038 A 
ATOM     50 H50  LIG A   1      21.306  23.606  10.601  1.00 20.00    +0.025 H 
ATOM     51 H51  LIG A   1      21.923  25.230  10.928  1.00 20.00    +0.025 H 
ATOM     52 H52  LIG A   1      20.410  25.009  10.027  1.00 20.00    +0.025 H 
ATOM     53 H53  LIG A   1      18.246  24.331  11.283  1.00 20.00    +0.025 H 
ATOM     54 H54  LIG A   1      19.155  22.850  11.562  1.00 20.00    +0.025 H 
ATOM     55 H55  LIG A   1      18.377  23.653  12.913  1.00 20.00    +0.025 H 
ATOM     56 H56  LIG A   1      20.850  22.838  13.280  1.00 20.00    +0.031 H 
ATOM     57 H57  LIG A   1      22.177  23.901  12.908  1.00 20.00    +0.031 H 
ATOM     58 H58  LIG A   1      21.873  25.281  14.724  1.00 20.00    +0.060 H 
ATOM     59 H59  LIG A   1      22.327  23.152  15.318  1.00 20.00    +0.210 HD
ATOM     60 H60  LIG A   1      19.004  24.265  14.935  1.00 20.00    +0.031 H 
ATOM     61 H61  LIG A   1      19.734  25.404  16.025  1.00 20.00    +0.031 H 
ATOM     62 H62  LIG A   1      17.475  26.452  15.079  1.00 20.00    +0.025 H 
ATOM     63 H63  LIG A   1      17.495  27.290  13.534  1.00 20.00    +0.025 H 
ATOM     64 H64  LIG A   1      17.332  25.528  13.586  1.00 20.00    +0.025 H 
ATOM     65 H65  LIG A   1      19.616  27.716  15.628  1.00 20.00    +0.025 H 
ATOM     66 H66  LIG A   1      19.702  28.421  14.015  1.00 20.00    +0.025 H 
ATOM     67 H67  LIG A   1      21.073  27.503  14.653  1.00 20.00    +0.025 H 
ATOM     68 H68  LIG A   1      24.573  14.390   4.759  1.00 20.00    +0.118 HD
ATOM     69 H69  LIG A   1      25.801  15.213   5.434  1.00 20.00    +0.118 HD
ATOM     70 H70  LIG A   1      25.074  14.645   7.642  1.00 20.00    +0.043 H 
ATOM     71 H71  LIG A   1      23.749  13.729   6.920  1.00 20.00    +0.043 H 
ATOM     72 H72  LIG A   1      22.890  15.818   5.827  1.00 20.00    +0.028 H 
ATOM     73 H73  LIG A   1      24.226  16.735   6.530  1.00 20.00    +0.028 H 
ATOM     74 H74  LIG A   1      22.112  15.200   8.139  1.00 20.00    +0.028 H 
ATOM     75 H75  LIG A   1      23.408  16.169   8.831  1.00 20.00    +0.028 H 
ATOM     76 H76  LIG A   1      21.213  17.347   8.802  1.00 20.00    +0.043 H 
ATOM     77 H77  LIG A   1      21.151  17.206   7.037  1.00 20.00    +0.043 H 
ATOM     78 H78  LIG A   1      23.210  18.642   8.590  1.00 20.00    +0.122 HD
ATOM     79 H79  LIG A   1      21.100  19.784   8.572  1.00 20.00    +0.043 H 
ATOM     80 H80  LIG A   1      21.079  19.619   6.803  1.00 20.00    +0.043 H 
ATOM     81 H81  LIG A   1      23.206  21.107   8.430  1.00 20.00    +0.030 H 
ATOM     82 H82  LIG A   1      23.261  20.871   6.684  1.00 20.00    +0.030 H 
ATOM     83 H83  LIG A   1      22.347  23.084   7.030  1.00 20.00    +0.049 H 
ATOM     84 H84  LIG A   1      21.070  22.047   6.439  1.00 20.00    +0.049 H 
ATOM     85 H85  LIG A   1      19.906  22.689   8.197  1.00 20.00    +0.160 HD
ATOM     86 H86  LIG A   1      23.420  23.388   9.051  1.00 20.00    +0.064 H 
ATOM     87 H87  LIG A   1      24.029  24.868  10.866  1.00 20.00    +0.063 H 
ATOM     88 H88  LIG A   1      24.544  26.462  12.672  1.00 20.00    +0.066 H 
ATOM     89 H89  LIG A   1      23.956  27.979  14.845  1.00 20.00    +0.066 H 
ATOM     90 H90  LIG A   1      22.354  29.279  16.244  1.00 20.00    +0.063 H 
ATOM     91 H91  LIG A   1      20.813  30.205  17.866  1.00 20.00    +0.064 H 
ATOM     92 H92  LIG A   1      17.505  28.710  18.528  1.00 20.00    +0.160 HD
ATOM     93 H93  LIG A   1      17.885  30.083  20.214  1.00 20.00    +0.049 H 
ATOM     94 H94  LIG A   1      19.572  30.058  19.771  1.00 20.00    +0.049 H 
ATOM     95 H95  LIG A   1      18.921  32.373  19.732  1.00 20.00    +0.030 H 
ATOM     96 H96  LIG A   1      19.058  31.911  18.043  1.00 20.00    +0.030 H 
ATOM     97 H97  LIG A   1      17.060  33.195  18.232  1.00 20.00    +0.043 H 
ATOM     98 H98  LIG A   1      16.560  31.519  17.981  1.00 20.00    +0.043 H 
ATOM     99 H99  LIG A   1      16.686  33.007  20.531  1.00 20.00    +0.122 HD
ATOM    100 H100 LIG A   1      14.435  32.905  20.690  1.00 20.00    +0.043 H 
ATOM    101 H101 LIG A   1      14.767  33.464  19.061  1.00 20.00    +0.043 H 
ATOM    102 H102 LIG A   1      14.377  31.138  18.190  1.00 20.00    +0.028 H 
ATOM    103 H103 LIG A   1      13.000  31.780  19.068  1.00 20.00    +0.028 H 
ATOM    104 H104 LIG A   1      13.654  30.487  21.102  1.00 20.00    +0.028 H 
ATOM    105 H105 LIG A   1      15.084  29.880  20.276  1.00 20.00    +0.028 H 
ATOM    106 H106 LIG A   1      13.665  28.717  18.589  1.00 20.00    +0.043 H 
ATOM    107 H107 LIG A   1      13.410  28.157  20.238  1.00 20.00    +0.043 H 
ATOM    108 H108 LIG A   1      11.475  29.605  20.338  1.00 20.00    +0.118 HD
ATOM    109 H109 LIG A   1      11.670  30.005  18.770  1.00 20.00    +0.118 HD
ATOM    110 H110 LIG A   1      17.781  27.437  16.582  1.00 20.00    +0.064 H 
ATOM    111 H111 LIG A   1      19.328  26.501  14.944  1.00 20.00    +0.063 H 
ATOM    112 H112 LIG A   1      19.901  25.083  12.087  1.00 20.00    +0.063 H 
ATOM    113 H113 LIG A   1      19.294  23.590  10.257  1.00 20.00    +0.064 H 
ENDROOT
TORSDOF 0
                                                                                                                    
ENDMDL
MODEL 6
REMARK VINA RESULT:    -9.145      2.649      4.370
REMARK INTER + INTRA:          -9.145
REMARK INTER:                  -9.145
REMARK INTRA:                   0.000
REMARK UNBOUND:                 0.000
ROOT
ATOM      1 C1   LIG A   1      21.511  18.428  10.284  1.00 20.00    -0.044 C 
ATOM      2 C2   LIG A   1      20.239  18.201   9.417  1.00 20.00    +0.047 C 
ATOM      3 C3   LIG A   1      19.018  18.317  10.364  1.00 20.00    -0.044 C 
ATOM      4 C4   LIG A   1      20.208  19.379   8.395  1.00 20.00    -0.006 C 
ATOM      5 C5   LIG A   1      19.722  18.989   7.000  1.00 20.00    +0.058 C 
ATOM      6 O6   LIG A   1      19.190  20.144   6.335  1.00 20.00    -0.393 OA
ATOM      7 C7   LIG A   1      18.664  17.905   7.068  1.00 20.00    -0.006 C 
ATOM      8 C8   LIG A   1      19.239  16.606   7.696  1.00 20.00    +0.047 C 
ATOM      9 C9   LIG A   1      18.037  15.787   8.233  1.00 20.00    -0.044 C 
ATOM     10 C10  LIG A   1      19.890  15.777   6.553  1.00 20.00    -0.044 C 
ATOM     11 N11  LIG A   1      20.322  16.930   8.665  1.00 20.00    -0.144 NA
ATOM     12 O12  LIG A   1      20.561  15.820   9.543  1.00 20.00    -0.120 OA
ATOM     13 N13  LIG A   1      23.869  28.817  16.329  1.00 20.00    -0.330 NA
ATOM     14 C14  LIG A   1      22.716  28.419  15.530  1.00 20.00    -0.008 C 
ATOM     15 C15  LIG A   1      22.531  26.901  15.549  1.00 20.00    -0.040 C 
ATOM     16 C16  LIG A   1      21.325  26.482  14.701  1.00 20.00    -0.039 C 
ATOM     17 C17  LIG A   1      21.055  24.974  14.751  1.00 20.00    -0.005 C 
ATOM     18 N18  LIG A   1      22.171  24.220  14.180  1.00 20.00    -0.317 NA
ATOM     19 C19  LIG A   1      21.920  22.776  14.250  1.00 20.00    -0.003 C 
ATOM     20 C20  LIG A   1      23.110  22.017  13.658  1.00 20.00    -0.023 C 
ATOM     21 C21  LIG A   1      22.966  20.504  13.824  1.00 20.00    +0.016 C 
ATOM     22 N22  LIG A   1      21.835  19.983  13.063  1.00 20.00    -0.385 NA
ATOM     23 C23  LIG A   1      21.995  19.488  11.767  1.00 20.00    +0.034 A 
ATOM     24 C24  LIG A   1      23.075  19.797  10.937  1.00 20.00    -0.038 A 
ATOM     25 C25  LIG A   1      23.148  19.311   9.621  1.00 20.00    -0.049 A 
ATOM     26 C26  LIG A   1      22.124  18.524   9.083  1.00 20.00    +0.017 A 
ATOM     27 C27  LIG A   1      22.212  18.012   7.718  1.00 20.00    +0.134 A 
ATOM     28 C28  LIG A   1      23.162  18.076   6.718  1.00 20.00    -0.015 A 
ATOM     29 C29  LIG A   1      22.644  17.353   5.614  1.00 20.00    -0.015 A 
ATOM     30 C30  LIG A   1      21.402  16.888   5.991  1.00 20.00    +0.134 A 
ATOM     31 C31  LIG A   1      20.368  16.088   5.339  1.00 20.00    +0.017 A 
ATOM     32 C32  LIG A   1      20.630  15.419   4.139  1.00 20.00    -0.049 A 
ATOM     33 C33  LIG A   1      19.641  14.648   3.507  1.00 20.00    -0.038 A 
ATOM     34 C34  LIG A   1      18.352  14.545   4.034  1.00 20.00    +0.034 A 
ATOM     35 N35  LIG A   1      17.349  13.744   3.494  1.00 20.00    -0.385 NA
ATOM     36 C36  LIG A   1      17.405  13.223   2.132  1.00 20.00    +0.016 C 
ATOM     37 C37  LIG A   1      18.042  11.833   2.100  1.00 20.00    -0.023 C 
ATOM     38 C38  LIG A   1      17.171  10.754   2.751  1.00 20.00    -0.003 C 
ATOM     39 N39  LIG A   1      15.981  10.480   1.934  1.00 20.00    -0.317 NA
ATOM     40 C40  LIG A   1      15.068   9.538   2.584  1.00 20.00    -0.005 C 
ATOM     41 C41  LIG A   1      14.251  10.147   3.731  1.00 20.00    -0.039 C 
ATOM     42 C42  LIG A   1      13.393  11.337   3.285  1.00 20.00    -0.040 C 
ATOM     43 C43  LIG A   1      12.615  11.990   4.430  1.00 20.00    -0.008 C 
ATOM     44 N44  LIG A   1      11.610  11.110   5.018  1.00 20.00    -0.330 NA
ATOM     45 C45  LIG A   1      18.107  15.187   5.255  1.00 20.00    -0.038 A 
ATOM     46 C46  LIG A   1      19.090  15.954   5.893  1.00 20.00    -0.049 A 
ATOM     47 O47  LIG A   1      21.139  17.291   7.270  1.00 20.00    -0.456 OA
ATOM     48 C48  LIG A   1      21.019  18.251   9.897  1.00 20.00    -0.049 A 
ATOM     49 C49  LIG A   1      20.953  18.738  11.208  1.00 20.00    -0.038 A 
ATOM     50 H50  LIG A   1      21.521  19.441  10.704  1.00 20.00    +0.025 H 
ATOM     51 H51  LIG A   1      22.425  18.311   9.688  1.00 20.00    +0.025 H 
ATOM     52 H52  LIG A   1      21.567  17.734  11.131  1.00 20.00    +0.025 H 
ATOM     53 H53  LIG A   1      18.986  17.498  11.092  1.00 20.00    +0.025 H 
ATOM     54 H54  LIG A   1      19.065  19.250  10.940  1.00 20.00    +0.025 H 
ATOM     55 H55  LIG A   1      18.067  18.332   9.828  1.00 20.00    +0.025 H 
ATOM     56 H56  LIG A   1      19.594  20.202   8.785  1.00 20.00    +0.031 H 
ATOM     57 H57  LIG A   1      21.209  19.814   8.268  1.00 20.00    +0.031 H 
ATOM     58 H58  LIG A   1      20.568  18.645   6.393  1.00 20.00    +0.060 H 
ATOM     59 H59  LIG A   1      19.905  20.801   6.341  1.00 20.00    +0.210 HD
ATOM     60 H60  LIG A   1      17.807  18.283   7.640  1.00 20.00    +0.031 H 
ATOM     61 H61  LIG A   1      18.264  17.715   6.063  1.00 20.00    +0.031 H 
ATOM     62 H62  LIG A   1      17.271  15.672   7.454  1.00 20.00    +0.025 H 
ATOM     63 H63  LIG A   1      18.325  14.774   8.537  1.00 20.00    +0.025 H 
ATOM     64 H64  LIG A   1      17.555  16.270   9.087  1.00 20.00    +0.025 H 
ATOM     65 H65  LIG A   1      19.166  15.567   5.757  1.00 20.00    +0.025 H 
ATOM     66 H66  LIG A   1      20.260  14.810   6.913  1.00 20.00    +0.025 H 
ATOM     67 H67  LIG A   1      20.733  16.307   6.098  1.00 20.00    +0.025 H 
ATOM     68 H68  LIG A   1      23.758  28.467  17.281  1.00 20.00    +0.118 HD
ATOM     69 H69  LIG A   1      24.705  28.359  15.965  1.00 20.00    +0.118 HD
ATOM     70 H70  LIG A   1      22.857  28.772  14.502  1.00 20.00    +0.043 H 
ATOM     71 H71  LIG A   1      21.822  28.914  15.925  1.00 20.00    +0.043 H 
ATOM     72 H72  LIG A   1      22.388  26.559  16.581  1.00 20.00    +0.028 H 
ATOM     73 H73  LIG A   1      23.440  26.418  15.170  1.00 20.00    +0.028 H 
ATOM     74 H74  LIG A   1      20.430  27.004  15.063  1.00 20.00    +0.028 H 
ATOM     75 H75  LIG A   1      21.475  26.798  13.661  1.00 20.00    +0.028 H 
ATOM     76 H76  LIG A   1      20.135  24.764  14.192  1.00 20.00    +0.043 H 
ATOM     77 H77  LIG A   1      20.889  24.675  15.792  1.00 20.00    +0.043 H 
ATOM     78 H78  LIG A   1      22.293  24.488  13.203  1.00 20.00    +0.122 HD
ATOM     79 H79  LIG A   1      21.004  22.527  13.701  1.00 20.00    +0.043 H 
ATOM     80 H80  LIG A   1      21.784  22.477  15.296  1.00 20.00    +0.043 H 
ATOM     81 H81  LIG A   1      23.225  22.282  12.600  1.00 20.00    +0.030 H 
ATOM     82 H82  LIG A   1      24.031  22.331  14.167  1.00 20.00    +0.030 H 
ATOM     83 H83  LIG A   1      23.900  19.994  13.558  1.00 20.00    +0.049 H 
ATOM     84 H84  LIG A   1      22.798  20.279  14.885  1.00 20.00    +0.049 H 
ATOM     85 H85  LIG A   1      21.238  19.373  13.619  1.00 20.00    +0.160 HD
ATOM     86 H86  LIG A   1      23.892  20.419  11.288  1.00 20.00    +0.064 H 
ATOM     87 H87  LIG A   1      24.020  19.570   9.026  1.00 20.00    +0.063 H 
ATOM     88 H88  LIG A   1      24.117  18.578   6.774  1.00 20.00    +0.066 H 
ATOM     89 H89  LIG A   1      23.123  17.197   4.658  1.00 20.00    +0.066 H 
ATOM     90 H90  LIG A   1      21.612  15.473   3.678  1.00 20.00    +0.063 H 
ATOM     91 H91  LIG A   1      19.914  14.132   2.592  1.00 20.00    +0.064 H 
ATOM     92 H92  LIG A   1      16.415  14.046   3.764  1.00 20.00    +0.160 HD
ATOM     93 H93  LIG A   1      16.385  13.176   1.736  1.00 20.00    +0.049 H 
ATOM     94 H94  LIG A   1      17.946  13.908   1.467  1.00 20.00    +0.049 H 
ATOM     95 H95  LIG A   1      18.247  11.558   1.058  1.00 20.00    +0.030 H 
ATOM     96 H96  LIG A   1      19.012  11.849   2.612  1.00 20.00    +0.030 H 
ATOM     97 H97  LIG A   1      17.763   9.835   2.843  1.00 20.00    +0.043 H 
ATOM     98 H98  LIG A   1      16.899  11.071   3.762  1.00 20.00    +0.043 H 
ATOM     99 H99  LIG A   1      16.286  10.078   1.048  1.00 20.00    +0.122 HD
ATOM    100 H100 LIG A   1      14.366   9.175   1.823  1.00 20.00    +0.043 H 
ATOM    101 H101 LIG A   1      15.614   8.656   2.940  1.00 20.00    +0.043 H 
ATOM    102 H102 LIG A   1      14.911  10.453   4.551  1.00 20.00    +0.028 H 
ATOM    103 H103 LIG A   1      13.604   9.358   4.134  1.00 20.00    +0.028 H 
ATOM    104 H104 LIG A   1      12.698  11.015   2.499  1.00 20.00    +0.028 H 
ATOM    105 H105 LIG A   1      14.034  12.108   2.840  1.00 20.00    +0.028 H 
ATOM    106 H106 LIG A   1      13.304  12.326   5.213  1.00 20.00    +0.043 H 
ATOM    107 H107 LIG A   1      12.107  12.883   4.049  1.00 20.00    +0.043 H 
ATOM    108 H108 LIG A   1      11.009  10.740   4.283  1.00 20.00    +0.118 HD
ATOM    109 H109 LIG A   1      12.062  10.306   5.450  1.00 20.00    +0.118 HD
ATOM    110 H110 LIG A   1      17.134  15.093   5.731  1.00 20.00    +0.064 H 
ATOM    111 H111 LIG A   1      18.843  16.445   6.831  1.00 20.00    +0.063 H 
ATOM    112 H112 LIG A   1      20.189  17.658   9.518  1.00 20.00    +0.063 H 
ATOM    113 H113 LIG A   1      20.065  18.518  11.796  1.00 20.00    +0.064 H 
ENDROOT
TORSDOF 0
                                                                                                                    
ENDMDL
MODEL 7
REMARK VINA RESULT:    -9.074      9.556     15.136
REMARK INTER + INTRA:          -9.074
REMARK INTER:                  -9.074
REMARK INTRA:                   0.000
REMARK UNBOUND:                 0.000
ROOT
ATOM      1 C1   LIG A   1      18.083  30.678  13.309  1.00 20.00    -0.044 C 
ATOM      2 C2   LIG A   1      17.194  29.546  13.900  1.00 20.00    +0.047 C 
ATOM      3 C3   LIG A   1      16.332  28.994  12.737  1.00 20.00    -0.044 C 
ATOM      4 C4   LIG A   1      18.182  28.437  14.376  1.00 20.00    -0.006 C 
ATOM      5 C5   LIG A   1      17.771  27.744  15.675  1.00 20.00    +0.058 C 
ATOM      6 O6   LIG A   1      18.357  26.435  15.728  1.00 20.00    -0.393 OA
ATOM      7 C7   LIG A   1      16.263  27.634  15.787  1.00 20.00    -0.006 C 
ATOM      8 C8   LIG A   1      15.605  29.040  15.830  1.00 20.00    +0.047 C 
ATOM      9 C9   LIG A   1      14.128  28.867  15.390  1.00 20.00    -0.044 C 
ATOM     10 C10  LIG A   1      15.594  29.511  17.311  1.00 20.00    -0.044 C 
ATOM     11 N11  LIG A   1      16.425  30.023  15.070  1.00 20.00    -0.144 NA
ATOM     12 O12  LIG A   1      15.647  31.183  14.744  1.00 20.00    -0.120 OA
ATOM     13 N13  LIG A   1      26.403  28.905   4.495  1.00 20.00    -0.330 NA
ATOM     14 C14  LIG A   1      25.457  27.983   5.115  1.00 20.00    -0.008 C 
ATOM     15 C15  LIG A   1      24.220  28.723   5.623  1.00 20.00    -0.040 C 
ATOM     16 C16  LIG A   1      23.230  27.756   6.281  1.00 20.00    -0.039 C 
ATOM     17 C17  LIG A   1      21.939  28.443   6.740  1.00 20.00    -0.005 C 
ATOM     18 N18  LIG A   1      22.211  29.436   7.779  1.00 20.00    -0.317 NA
ATOM     19 C19  LIG A   1      20.976  30.108   8.200  1.00 20.00    -0.003 C 
ATOM     20 C20  LIG A   1      21.297  31.149   9.275  1.00 20.00    -0.023 C 
ATOM     21 C21  LIG A   1      20.069  31.976   9.658  1.00 20.00    +0.016 C 
ATOM     22 N22  LIG A   1      19.043  31.155  10.293  1.00 20.00    -0.385 NA
ATOM     23 C23  LIG A   1      18.971  31.024  11.682  1.00 20.00    +0.034 A 
ATOM     24 C24  LIG A   1      20.035  31.281  12.550  1.00 20.00    -0.038 A 
ATOM     25 C25  LIG A   1      19.914  31.073  13.934  1.00 20.00    -0.049 A 
ATOM     26 C26  LIG A   1      18.733  30.572  14.490  1.00 20.00    +0.017 A 
ATOM     27 C27  LIG A   1      18.611  30.371  15.932  1.00 20.00    +0.134 A 
ATOM     28 C28  LIG A   1      19.433  30.605  17.016  1.00 20.00    -0.015 A 
ATOM     29 C29  LIG A   1      18.716  30.197  18.169  1.00 20.00    -0.015 A 
ATOM     30 C30  LIG A   1      17.494  29.729  17.733  1.00 20.00    +0.134 A 
ATOM     31 C31  LIG A   1      16.313  29.181  18.394  1.00 20.00    +0.017 A 
ATOM     32 C32  LIG A   1      16.168  29.260  19.784  1.00 20.00    -0.049 A 
ATOM     33 C33  LIG A   1      15.035  28.736  20.426  1.00 20.00    -0.038 A 
ATOM     34 C34  LIG A   1      14.026  28.089  19.709  1.00 20.00    +0.034 A 
ATOM     35 N35  LIG A   1      12.849  27.609  20.277  1.00 20.00    -0.385 NA
ATOM     36 C36  LIG A   1      12.699  27.391  21.712  1.00 20.00    +0.016 C 
ATOM     37 C37  LIG A   1      12.109  28.625  22.397  1.00 20.00    -0.023 C 
ATOM     38 C38  LIG A   1      10.646  28.883  22.023  1.00 20.00    -0.003 C 
ATOM     39 N39  LIG A   1       9.770  27.857  22.603  1.00 20.00    -0.317 NA
ATOM     40 C40  LIG A   1       8.379  28.006  22.170  1.00 20.00    -0.005 C 
ATOM     41 C41  LIG A   1       8.118  27.543  20.731  1.00 20.00    -0.039 C 
ATOM     42 C42  LIG A   1       8.482  26.071  20.503  1.00 20.00    -0.040 C 
ATOM     43 C43  LIG A   1       8.279  25.610  19.058  1.00 20.00    -0.008 C 
ATOM     44 N44  LIG A   1       6.882  25.633  18.637  1.00 20.00    -0.330 NA
ATOM     45 C45  LIG A   1      14.159  28.046  18.315  1.00 20.00    -0.038 A 
ATOM     46 C46  LIG A   1      15.285  28.571  17.667  1.00 20.00    -0.049 A 
ATOM     47 O47  LIG A   1      17.432  29.833  16.372  1.00 20.00    -0.456 OA
ATOM     48 C48  LIG A   1      17.682  30.269  13.618  1.00 20.00    -0.049 A 
ATOM     49 C49  LIG A   1      17.807  30.479  12.239  1.00 20.00    -0.038 A 
ATOM     50 H50  LIG A   1      18.773  30.279  12.555  1.00 20.00    +0.025 H 
ATOM     51 H51  LIG A   1      18.691  31.154  14.089  1.00 20.00    +0.025 H 
ATOM     52 H52  LIG A   1      17.492  31.458  12.817  1.00 20.00    +0.025 H 
ATOM     53 H53  LIG A   1      15.607  29.734  12.379  1.00 20.00    +0.025 H 
ATOM     54 H54  LIG A   1      16.964  28.731  11.880  1.00 20.00    +0.025 H 
ATOM     55 H55  LIG A   1      15.785  28.088  13.009  1.00 20.00    +0.025 H 
ATOM     56 H56  LIG A   1      18.320  27.688  13.584  1.00 20.00    +0.031 H 
ATOM     57 H57  LIG A   1      19.185  28.851  14.546  1.00 20.00    +0.031 H 
ATOM     58 H58  LIG A   1      18.169  28.297  16.534  1.00 20.00    +0.060 H 
ATOM     59 H59  LIG A   1      19.314  26.573  15.633  1.00 20.00    +0.210 HD
ATOM     60 H60  LIG A   1      15.888  27.040  14.944  1.00 20.00    +0.031 H 
ATOM     61 H61  LIG A   1      16.001  27.047  16.678  1.00 20.00    +0.031 H 
ATOM     62 H62  LIG A   1      13.645  28.069  15.968  1.00 20.00    +0.025 H 
ATOM     63 H63  LIG A   1      13.535  29.773  15.556  1.00 20.00    +0.025 H 
ATOM     64 H64  LIG A   1      14.040  28.596  14.334  1.00 20.00    +0.025 H 
ATOM     65 H65  LIG A   1      15.072  28.789  17.950  1.00 20.00    +0.025 H 
ATOM     66 H66  LIG A   1      15.081  30.472  17.428  1.00 20.00    +0.025 H 
ATOM     67 H67  LIG A   1      16.608  29.626  17.707  1.00 20.00    +0.025 H 
ATOM     68 H68  LIG A   1      25.937  29.413   3.743  1.00 20.00    +0.118 HD
ATOM     69 H69  LIG A   1      26.676  29.615   5.176  1.00 20.00    +0.118 HD
ATOM     70 H70  LIG A   1      25.956  27.465   5.941  1.00 20.00    +0.043 H 
ATOM     71 H71  LIG A   1      25.168  27.224   4.379  1.00 20.00    +0.043 H 
ATOM     72 H72  LIG A   1      23.727  29.237   4.788  1.00 20.00    +0.028 H 
ATOM     73 H73  LIG A   1      24.525  29.494   6.342  1.00 20.00    +0.028 H 
ATOM     74 H74  LIG A   1      22.966  26.968   5.567  1.00 20.00    +0.028 H 
ATOM     75 H75  LIG A   1      23.710  27.260   7.134  1.00 20.00    +0.028 H 
ATOM     76 H76  LIG A   1      21.253  27.678   7.123  1.00 20.00    +0.043 H 
ATOM     77 H77  LIG A   1      21.461  28.918   5.876  1.00 20.00    +0.043 H 
ATOM     78 H78  LIG A   1      22.628  28.973   8.587  1.00 20.00    +0.122 HD
ATOM     79 H79  LIG A   1      20.262  29.373   8.588  1.00 20.00    +0.043 H 
ATOM     80 H80  LIG A   1      20.517  30.608   7.337  1.00 20.00    +0.043 H 
ATOM     81 H81  LIG A   1      21.718  30.650  10.156  1.00 20.00    +0.030 H 
ATOM     82 H82  LIG A   1      22.067  31.835   8.899  1.00 20.00    +0.030 H 
ATOM     83 H83  LIG A   1      20.355  32.824  10.291  1.00 20.00    +0.049 H 
ATOM     84 H84  LIG A   1      19.641  32.416   8.749  1.00 20.00    +0.049 H 
ATOM     85 H85  LIG A   1      18.119  31.303   9.889  1.00 20.00    +0.160 HD
ATOM     86 H86  LIG A   1      20.984  31.653  12.179  1.00 20.00    +0.064 H 
ATOM     87 H87  LIG A   1      20.769  31.307  14.563  1.00 20.00    +0.063 H 
ATOM     88 H88  LIG A   1      20.427  31.023  16.986  1.00 20.00    +0.066 H 
ATOM     89 H89  LIG A   1      19.057  30.239  19.194  1.00 20.00    +0.066 H 
ATOM     90 H90  LIG A   1      16.927  29.743  20.393  1.00 20.00    +0.063 H 
ATOM     91 H91  LIG A   1      14.969  28.852  21.503  1.00 20.00    +0.064 H 
ATOM     92 H92  LIG A   1      12.410  26.881  19.718  1.00 20.00    +0.160 HD
ATOM     93 H93  LIG A   1      12.042  26.528  21.865  1.00 20.00    +0.049 H 
ATOM     94 H94  LIG A   1      13.655  27.116  22.174  1.00 20.00    +0.049 H 
ATOM     95 H95  LIG A   1      12.192  28.504  23.485  1.00 20.00    +0.030 H 
ATOM     96 H96  LIG A   1      12.694  29.516  22.140  1.00 20.00    +0.030 H 
ATOM     97 H97  LIG A   1      10.354  29.867  22.411  1.00 20.00    +0.043 H 
ATOM     98 H98  LIG A   1      10.553  28.919  20.934  1.00 20.00    +0.043 H 
ATOM     99 H99  LIG A   1       9.804  27.943  23.620  1.00 20.00    +0.122 HD
ATOM    100 H100 LIG A   1       7.754  27.401  22.840  1.00 20.00    +0.043 H 
ATOM    101 H101 LIG A   1       8.045  29.043  22.297  1.00 20.00    +0.043 H 
ATOM    102 H102 LIG A   1       8.665  28.173  20.020  1.00 20.00    +0.028 H 
ATOM    103 H103 LIG A   1       7.052  27.695  20.521  1.00 20.00    +0.028 H 
ATOM    104 H104 LIG A   1       7.895  25.438  21.181  1.00 20.00    +0.028 H 
ATOM    105 H105 LIG A   1       9.536  25.908  20.757  1.00 20.00    +0.028 H 
ATOM    106 H106 LIG A   1       8.872  26.229  18.376  1.00 20.00    +0.043 H 
ATOM    107 H107 LIG A   1       8.650  24.583  18.959  1.00 20.00    +0.043 H 
ATOM    108 H108 LIG A   1       6.316  25.115  19.307  1.00 20.00    +0.118 HD
ATOM    109 H109 LIG A   1       6.532  26.589  18.646  1.00 20.00    +0.118 HD
ATOM    110 H110 LIG A   1      13.375  27.598  17.709  1.00 20.00    +0.064 H 
ATOM    111 H111 LIG A   1      15.346  28.496  16.584  1.00 20.00    +0.063 H 
ATOM    112 H112 LIG A   1      16.748  29.860  14.000  1.00 20.00    +0.063 H 
ATOM    113 H113 LIG A   1      16.971  30.210  11.597  1.00 20.00    +0.064 H 
ENDROOT
TORSDOF 0
                                                                                                                    
ENDMDL
MODEL 8
REMARK VINA RESULT:    -8.926      5.776      7.493
REMARK INTER + INTRA:          -8.926
REMARK INTER:                  -8.926
REMARK INTRA:                   0.000
REMARK UNBOUND:                 0.000
ROOT
ATOM      1 C1   LIG A   1      21.593  23.458  10.401  1.00 20.00    -0.044 C 
ATOM      2 C2   LIG A   1      21.313  22.305  11.407  1.00 20.00    +0.047 C 
ATOM      3 C3   LIG A   1      21.165  22.951  12.807  1.00 20.00    -0.044 C 
ATOM      4 C4   LIG A   1      19.944  21.692  10.977  1.00 20.00    -0.006 C 
ATOM      5 C5   LIG A   1      19.864  20.172  11.118  1.00 20.00    +0.058 C 
ATOM      6 O6   LIG A   1      18.493  19.775  11.267  1.00 20.00    -0.393 OA
ATOM      7 C7   LIG A   1      20.670  19.686  12.306  1.00 20.00    -0.006 C 
ATOM      8 C8   LIG A   1      22.176  20.016  12.129  1.00 20.00    +0.047 C 
ATOM      9 C9   LIG A   1      22.815  20.011  13.543  1.00 20.00    -0.044 C 
ATOM     10 C10  LIG A   1      22.823  18.854  11.325  1.00 20.00    -0.044 C 
ATOM     11 N11  LIG A   1      22.348  21.251  11.316  1.00 20.00    -0.144 NA
ATOM     12 O12  LIG A   1      23.663  21.796  11.497  1.00 20.00    -0.120 OA
ATOM     13 N13  LIG A   1      13.786  32.645   8.229  1.00 20.00    -0.330 NA
ATOM     14 C14  LIG A   1      13.712  31.530   9.167  1.00 20.00    -0.008 C 
ATOM     15 C15  LIG A   1      15.108  31.062   9.579  1.00 20.00    -0.040 C 
ATOM     16 C16  LIG A   1      15.029  29.886  10.557  1.00 20.00    -0.039 C 
ATOM     17 C17  LIG A   1      16.405  29.431  11.056  1.00 20.00    -0.005 C 
ATOM     18 N18  LIG A   1      17.224  28.924   9.955  1.00 20.00    -0.317 NA
ATOM     19 C19  LIG A   1      18.549  28.512  10.432  1.00 20.00    -0.003 C 
ATOM     20 C20  LIG A   1      19.384  28.001   9.256  1.00 20.00    -0.023 C 
ATOM     21 C21  LIG A   1      20.821  27.681   9.668  1.00 20.00    +0.016 C 
ATOM     22 N22  LIG A   1      20.876  26.571  10.614  1.00 20.00    -0.385 NA
ATOM     23 C23  LIG A   1      21.062  25.255  10.183  1.00 20.00    +0.034 A 
ATOM     24 C24  LIG A   1      20.807  24.811   8.884  1.00 20.00    -0.038 A 
ATOM     25 C25  LIG A   1      20.960  23.461   8.530  1.00 20.00    -0.049 A 
ATOM     26 C26  LIG A   1      21.344  22.504   9.476  1.00 20.00    +0.017 A 
ATOM     27 C27  LIG A   1      21.514  21.104   9.097  1.00 20.00    +0.134 A 
ATOM     28 C28  LIG A   1      21.419  20.401   7.912  1.00 20.00    -0.015 A 
ATOM     29 C29  LIG A   1      21.716  19.049   8.213  1.00 20.00    -0.015 A 
ATOM     30 C30  LIG A   1      21.972  18.989   9.567  1.00 20.00    +0.134 A 
ATOM     31 C31  LIG A   1      22.339  17.921  10.492  1.00 20.00    +0.017 A 
ATOM     32 C32  LIG A   1      22.735  16.666  10.017  1.00 20.00    -0.049 A 
ATOM     33 C33  LIG A   1      23.089  15.634  10.902  1.00 20.00    -0.038 A 
ATOM     34 C34  LIG A   1      23.030  15.811  12.286  1.00 20.00    +0.034 A 
ATOM     35 N35  LIG A   1      23.432  14.852  13.213  1.00 20.00    -0.385 NA
ATOM     36 C36  LIG A   1      23.602  13.444  12.868  1.00 20.00    +0.016 C 
ATOM     37 C37  LIG A   1      25.048  13.149  12.465  1.00 20.00    -0.023 C 
ATOM     38 C38  LIG A   1      26.033  13.247  13.635  1.00 20.00    -0.003 C 
ATOM     39 N39  LIG A   1      25.828  12.144  14.584  1.00 20.00    -0.317 NA
ATOM     40 C40  LIG A   1      26.674  12.271  15.772  1.00 20.00    -0.005 C 
ATOM     41 C41  LIG A   1      26.199  13.337  16.769  1.00 20.00    -0.039 C 
ATOM     42 C42  LIG A   1      24.776  13.081  17.281  1.00 20.00    -0.040 C 
ATOM     43 C43  LIG A   1      24.268  14.166  18.233  1.00 20.00    -0.008 C 
ATOM     44 N44  LIG A   1      25.020  14.234  19.482  1.00 20.00    -0.330 NA
ATOM     45 C45  LIG A   1      22.668  17.080  12.755  1.00 20.00    -0.038 A 
ATOM     46 C46  LIG A   1      22.318  18.115  11.878  1.00 20.00    -0.049 A 
ATOM     47 O47  LIG A   1      21.847  20.239  10.104  1.00 20.00    -0.456 OA
ATOM     48 C48  LIG A   1      21.556  22.938  10.789  1.00 20.00    -0.049 A 
ATOM     49 C49  LIG A   1      21.403  24.286  11.135  1.00 20.00    -0.038 A 
ATOM     50 H50  LIG A   1      20.741  24.148  10.351  1.00 20.00    +0.025 H 
ATOM     51 H51  LIG A   1      21.760  23.071   9.388  1.00 20.00    +0.025 H 
ATOM     52 H52  LIG A   1      22.468  24.055  10.684  1.00 20.00    +0.025 H 
ATOM     53 H53  LIG A   1      22.109  23.381  13.161  1.00 20.00    +0.025 H 
ATOM     54 H54  LIG A   1      20.436  23.770  12.778  1.00 20.00    +0.025 H 
ATOM     55 H55  LIG A   1      20.809  22.247  13.562  1.00 20.00    +0.025 H 
ATOM     56 H56  LIG A   1      19.127  22.161  11.543  1.00 20.00    +0.031 H 
ATOM     57 H57  LIG A   1      19.724  21.922   9.926  1.00 20.00    +0.031 H 
ATOM     58 H58  LIG A   1      20.227  19.694  10.201  1.00 20.00    +0.060 H 
ATOM     59 H59  LIG A   1      18.032  20.130  10.488  1.00 20.00    +0.210 HD
ATOM     60 H60  LIG A   1      20.263  20.140  13.219  1.00 20.00    +0.031 H 
ATOM     61 H61  LIG A   1      20.514  18.607  12.441  1.00 20.00    +0.031 H 
ATOM     62 H62  LIG A   1      22.563  19.084  14.075  1.00 20.00    +0.025 H 
ATOM     63 H63  LIG A   1      23.909  20.061  13.505  1.00 20.00    +0.025 H 
ATOM     64 H64  LIG A   1      22.461  20.841  14.160  1.00 20.00    +0.025 H 
ATOM     65 H65  LIG A   1      22.666  17.892  11.827  1.00 20.00    +0.025 H 
ATOM     66 H66  LIG A   1      23.906  18.987  11.219  1.00 20.00    +0.025 H 
ATOM     67 H67  LIG A   1      22.399  18.771  10.319  1.00 20.00    +0.025 H 
ATOM     68 H68  LIG A   1      14.325  33.403   8.647  1.00 20.00    +0.118 HD
ATOM     69 H69  LIG A   1      14.315  32.356   7.405  1.00 20.00    +0.118 HD
ATOM     70 H70  LIG A   1      13.158  30.708   8.699  1.00 20.00    +0.043 H 
ATOM     71 H71  LIG A   1      13.143  31.846  10.048  1.00 20.00    +0.043 H 
ATOM     72 H72  LIG A   1      15.652  31.892  10.049  1.00 20.00    +0.028 H 
ATOM     73 H73  LIG A   1      15.672  30.770   8.685  1.00 20.00    +0.028 H 
ATOM     74 H74  LIG A   1      14.427  30.178  11.426  1.00 20.00    +0.028 H 
ATOM     75 H75  LIG A   1      14.510  29.044  10.083  1.00 20.00    +0.028 H 
ATOM     76 H76  LIG A   1      16.262  28.646  11.809  1.00 20.00    +0.043 H 
ATOM     77 H77  LIG A   1      16.905  30.276  11.544  1.00 20.00    +0.043 H 
ATOM     78 H78  LIG A   1      16.759  28.121   9.531  1.00 20.00    +0.122 HD
ATOM     79 H79  LIG A   1      18.447  27.727  11.191  1.00 20.00    +0.043 H 
ATOM     80 H80  LIG A   1      19.057  29.368  10.893  1.00 20.00    +0.043 H 
ATOM     81 H81  LIG A   1      18.901  27.119   8.817  1.00 20.00    +0.030 H 
ATOM     82 H82  LIG A   1      19.416  28.769   8.472  1.00 20.00    +0.030 H 
ATOM     83 H83  LIG A   1      21.444  27.489   8.786  1.00 20.00    +0.049 H 
ATOM     84 H84  LIG A   1      21.256  28.564  10.152  1.00 20.00    +0.049 H 
ATOM     85 H85  LIG A   1      21.456  26.778  11.426  1.00 20.00    +0.160 HD
ATOM     86 H86  LIG A   1      20.487  25.500   8.110  1.00 20.00    +0.064 H 
ATOM     87 H87  LIG A   1      20.763  23.176   7.500  1.00 20.00    +0.063 H 
ATOM     88 H88  LIG A   1      21.170  20.811   6.944  1.00 20.00    +0.066 H 
ATOM     89 H89  LIG A   1      21.735  18.219   7.520  1.00 20.00    +0.066 H 
ATOM     90 H90  LIG A   1      22.789  16.469   8.951  1.00 20.00    +0.063 H 
ATOM     91 H91  LIG A   1      23.413  14.692  10.472  1.00 20.00    +0.064 H 
ATOM     92 H92  LIG A   1      23.006  14.986  14.128  1.00 20.00    +0.160 HD
ATOM     93 H93  LIG A   1      23.324  12.837  13.736  1.00 20.00    +0.049 H 
ATOM     94 H94  LIG A   1      22.913  13.146  12.068  1.00 20.00    +0.049 H 
ATOM     95 H95  LIG A   1      25.099  12.143  12.028  1.00 20.00    +0.030 H 
ATOM     96 H96  LIG A   1      25.373  13.843  11.681  1.00 20.00    +0.030 H 
ATOM     97 H97  LIG A   1      27.054  13.193  13.237  1.00 20.00    +0.043 H 
ATOM     98 H98  LIG A   1      25.920  14.220  14.121  1.00 20.00    +0.043 H 
ATOM     99 H99  LIG A   1      26.059  11.268  14.113  1.00 20.00    +0.122 HD
ATOM    100 H100 LIG A   1      26.675  11.302  16.287  1.00 20.00    +0.043 H 
ATOM    101 H101 LIG A   1      27.715  12.464  15.485  1.00 20.00    +0.043 H 
ATOM    102 H102 LIG A   1      26.256  14.335  16.319  1.00 20.00    +0.028 H 
ATOM    103 H103 LIG A   1      26.899  13.338  17.613  1.00 20.00    +0.028 H 
ATOM    104 H104 LIG A   1      24.734  12.103  17.776  1.00 20.00    +0.028 H 
ATOM    105 H105 LIG A   1      24.082  13.033  16.433  1.00 20.00    +0.028 H 
ATOM    106 H106 LIG A   1      24.295  15.145  17.741  1.00 20.00    +0.043 H 
ATOM    107 H107 LIG A   1      23.219  13.961  18.475  1.00 20.00    +0.043 H 
ATOM    108 H108 LIG A   1      25.056  13.310  19.909  1.00 20.00    +0.118 HD
ATOM    109 H109 LIG A   1      25.984  14.500  19.293  1.00 20.00    +0.118 HD
ATOM    110 H110 LIG A   1      22.657  17.281  13.823  1.00 20.00    +0.064 H 
ATOM    111 H111 LIG A   1      22.029  19.077  12.294  1.00 20.00    +0.063 H 
ATOM    112 H112 LIG A   1      21.839  22.229  11.564  1.00 20.00    +0.063 H 
ATOM    113 H113 LIG A   1      21.558  24.573  12.173  1.00 20.00    +0.064 H 
ENDROOT
TORSDOF 0
                                                                                                                    
ENDMDL
MODEL 9
REMARK VINA RESULT:    -8.716      3.013      4.096
REMARK INTER + INTRA:          -8.716
REMARK INTER:                  -8.716
REMARK INTRA:                   0.000
REMARK UNBOUND:                 0.000
ROOT
ATOM      1 C1   LIG A   1      22.865  20.213  11.271  1.00 20.00    -0.044 C 
ATOM      2 C2   LIG A   1      21.388  19.752  11.101  1.00 20.00    +0.047 C 
ATOM      3 C3   LIG A   1      20.718  19.856  12.494  1.00 20.00    -0.044 C 
ATOM      4 C4   LIG A   1      20.731  20.787  10.137  1.00 20.00    -0.006 C 
ATOM      5 C5   LIG A   1      19.735  20.182   9.148  1.00 20.00    +0.058 C 
ATOM      6 O6   LIG A   1      18.798  21.186   8.733  1.00 20.00    -0.393 OA
ATOM      7 C7   LIG A   1      18.993  19.011   9.761  1.00 20.00    -0.006 C 
ATOM      8 C8   LIG A   1      19.972  17.865  10.133  1.00 20.00    +0.047 C 
ATOM      9 C9   LIG A   1      19.272  16.997  11.212  1.00 20.00    -0.044 C 
ATOM     10 C10  LIG A   1      20.157  16.974   8.873  1.00 20.00    -0.044 C 
ATOM     11 N11  LIG A   1      21.313  18.414  10.474  1.00 20.00    -0.144 NA
ATOM     12 O12  LIG A   1      22.080  17.451  11.210  1.00 20.00    -0.120 OA
ATOM     13 N13  LIG A   1      26.117  31.449  14.906  1.00 20.00    -0.330 NA
ATOM     14 C14  LIG A   1      24.801  30.839  14.752  1.00 20.00    -0.008 C 
ATOM     15 C15  LIG A   1      24.870  29.324  14.947  1.00 20.00    -0.040 C 
ATOM     16 C16  LIG A   1      23.489  28.683  14.776  1.00 20.00    -0.039 C 
ATOM     17 C17  LIG A   1      23.496  27.173  15.037  1.00 20.00    -0.005 C 
ATOM     18 N18  LIG A   1      24.336  26.473  14.064  1.00 20.00    -0.317 NA
ATOM     19 C19  LIG A   1      24.359  25.031  14.330  1.00 20.00    -0.003 C 
ATOM     20 C20  LIG A   1      25.255  24.332  13.305  1.00 20.00    -0.023 C 
ATOM     21 C21  LIG A   1      25.426  22.844  13.611  1.00 20.00    +0.016 C 
ATOM     22 N22  LIG A   1      24.165  22.121  13.488  1.00 20.00    -0.385 NA
ATOM     23 C23  LIG A   1      23.800  21.490  12.297  1.00 20.00    +0.034 A 
ATOM     24 C24  LIG A   1      24.335  21.805  11.046  1.00 20.00    -0.038 A 
ATOM     25 C25  LIG A   1      23.883  21.173   9.877  1.00 20.00    -0.049 A 
ATOM     26 C26  LIG A   1      22.855  20.224   9.919  1.00 20.00    +0.017 A 
ATOM     27 C27  LIG A   1      22.397  19.562   8.700  1.00 20.00    +0.134 A 
ATOM     28 C28  LIG A   1      22.779  19.601   7.374  1.00 20.00    -0.015 A 
ATOM     29 C29  LIG A   1      21.935  18.700   6.678  1.00 20.00    -0.015 A 
ATOM     30 C30  LIG A   1      21.076  18.158   7.611  1.00 20.00    +0.134 A 
ATOM     31 C31  LIG A   1      19.990  17.183   7.558  1.00 20.00    +0.017 A 
ATOM     32 C32  LIG A   1      19.783  16.403   6.415  1.00 20.00    -0.049 A 
ATOM     33 C33  LIG A   1      18.742  15.463   6.357  1.00 20.00    -0.038 A 
ATOM     34 C34  LIG A   1      17.856  15.292   7.423  1.00 20.00    +0.034 A 
ATOM     35 N35  LIG A   1      16.848  14.333   7.454  1.00 20.00    -0.385 NA
ATOM     36 C36  LIG A   1      16.364  13.658   6.253  1.00 20.00    +0.016 C 
ATOM     37 C37  LIG A   1      17.117  12.347   6.018  1.00 20.00    -0.023 C 
ATOM     38 C38  LIG A   1      16.799  11.272   7.061  1.00 20.00    -0.003 C 
ATOM     39 N39  LIG A   1      15.425  10.779   6.901  1.00 20.00    -0.317 NA
ATOM     40 C40  LIG A   1      15.048   9.834   7.954  1.00 20.00    -0.005 C 
ATOM     41 C41  LIG A   1      14.750  10.491   9.309  1.00 20.00    -0.039 C 
ATOM     42 C42  LIG A   1      13.619  11.523   9.234  1.00 20.00    -0.040 C 
ATOM     43 C43  LIG A   1      13.348  12.226  10.566  1.00 20.00    -0.008 C 
ATOM     44 N44  LIG A   1      12.854  11.326  11.603  1.00 20.00    -0.330 NA
ATOM     45 C45  LIG A   1      18.091  16.049   8.578  1.00 20.00    -0.038 A 
ATOM     46 C46  LIG A   1      19.131  16.986   8.644  1.00 20.00    -0.049 A 
ATOM     47 O47  LIG A   1      21.357  18.685   8.841  1.00 20.00    -0.456 OA
ATOM     48 C48  LIG A   1      22.284  19.941  11.165  1.00 20.00    -0.049 A 
ATOM     49 C49  LIG A   1      22.741  20.574  12.327  1.00 20.00    -0.038 A 
ATOM     50 H50  LIG A   1      22.912  21.266  11.575  1.00 20.00    +0.025 H 
ATOM     51 H51  LIG A   1      23.422  20.119  10.330  1.00 20.00    +0.025 H 
ATOM     52 H52  LIG A   1      23.395  19.636  12.038  1.00 20.00    +0.025 H 
ATOM     53 H53  LIG A   1      21.136  19.133  13.203  1.00 20.00    +0.025 H 
ATOM     54 H54  LIG A   1      20.880  20.852  12.925  1.00 20.00    +0.025 H 
ATOM     55 H55  LIG A   1      19.637  19.707  12.455  1.00 20.00    +0.025 H 
ATOM     56 H56  LIG A   1      20.242  21.584  10.715  1.00 20.00    +0.031 H 
ATOM     57 H57  LIG A   1      21.493  21.305   9.538  1.00 20.00    +0.031 H 
ATOM     58 H58  LIG A   1      20.261  19.856   8.243  1.00 20.00    +0.060 H 
ATOM     59 H59  LIG A   1      19.335  21.909   8.369  1.00 20.00    +0.210 HD
ATOM     60 H60  LIG A   1      18.437  19.365  10.639  1.00 20.00    +0.031 H 
ATOM     61 H61  LIG A   1      18.218  18.660   9.066  1.00 20.00    +0.031 H 
ATOM     62 H62  LIG A   1      18.266  16.710  10.881  1.00 20.00    +0.025 H 
ATOM     63 H63  LIG A   1      19.812  16.064  11.410  1.00 20.00    +0.025 H 
ATOM     64 H64  LIG A   1      19.158  17.529  12.160  1.00 20.00    +0.025 H 
ATOM     65 H65  LIG A   1      19.194  16.596   8.512  1.00 20.00    +0.025 H 
ATOM     66 H66  LIG A   1      20.787  16.102   9.080  1.00 20.00    +0.025 H 
ATOM     67 H67  LIG A   1      20.620  17.529   8.049  1.00 20.00    +0.025 H 
ATOM     68 H68  LIG A   1      26.497  31.208  15.822  1.00 20.00    +0.118 HD
ATOM     69 H69  LIG A   1      26.760  31.039  14.227  1.00 20.00    +0.118 HD
ATOM     70 H70  LIG A   1      24.414  31.077  13.755  1.00 20.00    +0.043 H 
ATOM     71 H71  LIG A   1      24.117  31.284  15.483  1.00 20.00    +0.043 H 
ATOM     72 H72  LIG A   1      25.256  29.098  15.949  1.00 20.00    +0.028 H 
ATOM     73 H73  LIG A   1      25.574  28.895  14.224  1.00 20.00    +0.028 H 
ATOM     74 H74  LIG A   1      22.785  29.150  15.475  1.00 20.00    +0.028 H 
ATOM     75 H75  LIG A   1      23.110  28.884  13.766  1.00 20.00    +0.028 H 
ATOM     76 H76  LIG A   1      22.465  26.802  14.976  1.00 20.00    +0.043 H 
ATOM     77 H77  LIG A   1      23.859  26.987  16.054  1.00 20.00    +0.043 H 
ATOM     78 H78  LIG A   1      23.967  26.632  13.125  1.00 20.00    +0.122 HD
ATOM     79 H79  LIG A   1      23.342  24.624  14.280  1.00 20.00    +0.043 H 
ATOM     80 H80  LIG A   1      24.751  24.849  15.338  1.00 20.00    +0.043 H 
ATOM     81 H81  LIG A   1      24.845  24.476  12.299  1.00 20.00    +0.030 H 
ATOM     82 H82  LIG A   1      26.249  24.799  13.314  1.00 20.00    +0.030 H 
ATOM     83 H83  LIG A   1      26.206  22.404  12.978  1.00 20.00    +0.049 H 
ATOM     84 H84  LIG A   1      25.785  22.734  14.642  1.00 20.00    +0.049 H 
ATOM     85 H85  LIG A   1      23.977  21.524  14.293  1.00 20.00    +0.160 HD
ATOM     86 H86  LIG A   1      25.121  22.546  10.944  1.00 20.00    +0.064 H 
ATOM     87 H87  LIG A   1      24.348  21.446   8.933  1.00 20.00    +0.063 H 
ATOM     88 H88  LIG A   1      23.572  20.202   6.954  1.00 20.00    +0.066 H 
ATOM     89 H89  LIG A   1      21.953  18.479   5.620  1.00 20.00    +0.066 H 
ATOM     90 H90  LIG A   1      20.436  16.501   5.552  1.00 20.00    +0.063 H 
ATOM     91 H91  LIG A   1      18.649  14.870   5.453  1.00 20.00    +0.064 H 
ATOM     92 H92  LIG A   1      16.100  14.567   8.103  1.00 20.00    +0.160 HD
ATOM     93 H93  LIG A   1      15.294  13.458   6.374  1.00 20.00    +0.049 H 
ATOM     94 H94  LIG A   1      16.443  14.309   5.374  1.00 20.00    +0.049 H 
ATOM     95 H95  LIG A   1      16.872  11.970   5.017  1.00 20.00    +0.030 H 
ATOM     96 H96  LIG A   1      18.199  12.526   6.024  1.00 20.00    +0.030 H 
ATOM     97 H97  LIG A   1      17.498  10.437   6.927  1.00 20.00    +0.043 H 
ATOM     98 H98  LIG A   1      16.964  11.680   8.062  1.00 20.00    +0.043 H 
ATOM     99 H99  LIG A   1      15.356  10.305   6.000  1.00 20.00    +0.122 HD
ATOM    100 H100 LIG A   1      14.142   9.310   7.624  1.00 20.00    +0.043 H 
ATOM    101 H101 LIG A   1      15.819   9.062   8.072  1.00 20.00    +0.043 H 
ATOM    102 H102 LIG A   1      15.654  10.961   9.713  1.00 20.00    +0.028 H 
ATOM    103 H103 LIG A   1      14.477   9.694  10.011  1.00 20.00    +0.028 H 
ATOM    104 H104 LIG A   1      12.701  11.037   8.877  1.00 20.00    +0.028 H 
ATOM    105 H105 LIG A   1      13.871  12.295   8.498  1.00 20.00    +0.028 H 
ATOM    106 H106 LIG A   1      14.257  12.724  10.923  1.00 20.00    +0.043 H 
ATOM    107 H107 LIG A   1      12.598  13.009  10.407  1.00 20.00    +0.043 H 
ATOM    108 H108 LIG A   1      12.050  10.809  11.251  1.00 20.00    +0.118 HD
ATOM    109 H109 LIG A   1      13.564  10.631  11.827  1.00 20.00    +0.118 HD
ATOM    110 H110 LIG A   1      17.459  15.915   9.452  1.00 20.00    +0.064 H 
ATOM    111 H111 LIG A   1      19.259  17.559   9.559  1.00 20.00    +0.063 H 
ATOM    112 H112 LIG A   1      21.470  19.223  11.246  1.00 20.00    +0.063 H 
ATOM    113 H113 LIG A   1      22.253  20.337  13.270  1.00 20.00    +0.064 H 
ENDROOT
TORSDOF 0
                                                                                                                    
ENDMDL
