ROOT
ATOM      1 C1   LIG A   1      -0.631   0.744   2.587  1.00 20.00    -0.060 C 
ATOM      2 C2   LIG A   1       0.037   0.736   1.205  1.00 20.00    -0.016 C 
ATOM      3 C3   LIG A   1      -0.857   1.420   0.138  1.00 20.00    -0.022 C 
ATOM      4 C4   LIG A   1      -2.051   0.567  -0.286  1.00 20.00    -0.029 A 
ATOM      5 C5   LIG A   1      -1.864  -0.495  -1.223  1.00 20.00    +0.004 A 
ATOM      6 C6   LIG A   1      -0.633  -0.817  -1.857  1.00 20.00    -0.053 A 
ATOM      7 C7   LIG A   1      -0.522  -1.876  -2.757  1.00 20.00    -0.062 A 
ATOM      8 C8   LIG A   1      -1.640  -2.639  -3.050  1.00 20.00    -0.060 A 
ATOM      9 C9   LIG A   1      -2.857  -2.331  -2.442  1.00 20.00    -0.036 A 
ATOM     10 C10  LIG A   1      -2.989  -1.279  -1.545  1.00 20.00    +0.071 A 
ATOM     11 N11  LIG A   1      -4.203  -1.066  -1.025  1.00 20.00    -0.248 NA
ATOM     12 C12  LIG A   1      -4.386  -0.061  -0.161  1.00 20.00    +0.071 A 
ATOM     13 C13  LIG A   1      -5.670   0.117   0.336  1.00 20.00    -0.036 A 
ATOM     14 C14  LIG A   1      -5.980   1.128   1.245  1.00 20.00    -0.060 A 
ATOM     15 C15  LIG A   1      -4.980   1.986   1.671  1.00 20.00    -0.062 A 
ATOM     16 C16  LIG A   1      -3.682   1.825   1.184  1.00 20.00    -0.053 A 
ATOM     17 C17  LIG A   1      -3.351   0.800   0.257  1.00 20.00    +0.004 A 
ATOM     18 C18  LIG A   1       1.453   1.363   1.299  1.00 20.00    +0.087 C 
ATOM     19 N19  LIG A   1       1.411   2.827   1.518  1.00 20.00    -0.320 NA
ATOM     20 C20  LIG A   1       2.286   1.054   0.031  1.00 20.00    +0.240 C 
ATOM     21 O21  LIG A   1       2.334   1.862  -0.902  1.00 20.00    -0.273 OA
ATOM     22 N22  LIG A   1       2.952  -0.148  -0.032  1.00 20.00    -0.328 NA
ATOM     23 C23  LIG A   1       2.957  -1.230   0.934  1.00 20.00    +0.022 C 
ATOM     24 C24  LIG A   1       3.174  -2.461   0.073  1.00 20.00    -0.033 C 
ATOM     25 C25  LIG A   1       4.128  -1.964  -1.007  1.00 20.00    -0.020 C 
ATOM     26 C26  LIG A   1       3.736  -0.496  -1.224  1.00 20.00    +0.129 C 
ATOM     27 C27  LIG A   1       5.011   0.330  -1.417  1.00 20.00    +0.326 C 
ATOM     28 O28  LIG A   1       5.739   0.283  -2.398  1.00 20.00    -0.250 OA
ATOM     29 O29  LIG A   1       5.363   1.089  -0.357  1.00 20.00    -0.480 OA
ATOM     30 O30  LIG A   1       3.437   1.058  -0.283  1.00 20.00    -0.251 OA
ATOM     31 C31  LIG A   1       2.333   0.946   0.225  1.00 20.00    +0.317 C 
ATOM     32 O32  LIG A   1       1.842   1.933   1.011  1.00 20.00    -0.480 OA
ATOM     33 C33  LIG A   1       1.426  -0.274   0.147  1.00 20.00    +0.094 C 
ATOM     34 N34  LIG A   1       0.006   0.127   0.183  1.00 20.00    -0.306 NA
ATOM     35 C35  LIG A   1      -0.868  -1.040   0.354  1.00 20.00    +0.005 C 
ATOM     36 C36  LIG A   1      -2.353  -0.652   0.367  1.00 20.00    +0.003 C 
ATOM     37 S37  LIG A   1      -2.884   0.079  -1.212  1.00 20.00    -0.178 SA
ATOM     38 H38  LIG A   1      -1.561   0.168   2.580  1.00 20.00    +0.023 H 
ATOM     39 H39  LIG A   1       0.023   0.285   3.336  1.00 20.00    +0.023 H 
ATOM     40 H40  LIG A   1      -0.861   1.762   2.919  1.00 20.00    +0.023 H 
ATOM     41 H41  LIG A   1       0.156  -0.316   0.922  1.00 20.00    +0.032 H 
ATOM     42 H42  LIG A   1      -1.178   2.407   0.485  1.00 20.00    +0.032 H 
ATOM     43 H43  LIG A   1      -0.282   1.655  -0.764  1.00 20.00    +0.032 H 
ATOM     44 H44  LIG A   1       0.263  -0.233  -1.666  1.00 20.00    +0.063 H 
ATOM     45 H45  LIG A   1       0.431  -2.094  -3.231  1.00 20.00    +0.062 H 
ATOM     46 H46  LIG A   1      -1.576  -3.466  -3.751  1.00 20.00    +0.062 H 
ATOM     47 H47  LIG A   1      -3.735  -2.928  -2.680  1.00 20.00    +0.065 H 
ATOM     48 H48  LIG A   1      -6.457  -0.556   0.003  1.00 20.00    +0.065 H 
ATOM     49 H49  LIG A   1      -6.996   1.238   1.613  1.00 20.00    +0.062 H 
ATOM     50 H50  LIG A   1      -5.203   2.780   2.380  1.00 20.00    +0.062 H 
ATOM     51 H51  LIG A   1      -2.931   2.518   1.549  1.00 20.00    +0.063 H 
ATOM     52 H52  LIG A   1       1.985   0.940   2.159  1.00 20.00    +0.057 H 
ATOM     53 H53  LIG A   1       2.371   3.149   1.661  1.00 20.00    +0.119 HD
ATOM     54 H54  LIG A   1       1.156   3.259   0.623  1.00 20.00    +0.119 HD
ATOM     55 H55  LIG A   1       2.038  -1.286   1.518  1.00 20.00    +0.049 H 
ATOM     56 H56  LIG A   1       3.800  -1.064   1.613  1.00 20.00    +0.049 H 
ATOM     57 H57  LIG A   1       3.574  -3.307   0.638  1.00 20.00    +0.029 H 
ATOM     58 H58  LIG A   1       2.228  -2.769  -0.387  1.00 20.00    +0.029 H 
ATOM     59 H59  LIG A   1       5.163  -2.056  -0.653  1.00 20.00    +0.029 H 
ATOM     60 H60  LIG A   1       4.044  -2.549  -1.928  1.00 20.00    +0.029 H 
ATOM     61 H61  LIG A   1       3.095  -0.362  -2.103  1.00 20.00    +0.065 H 
ATOM     62 H62  LIG A   1       6.168   1.556  -0.661  1.00 20.00    +0.296 HD
ATOM     63 H63  LIG A   1       2.528   2.631   0.957  1.00 20.00    +0.296 HD
ATOM     64 H64  LIG A   1       1.634  -0.794  -0.794  1.00 20.00    +0.055 H 
ATOM     65 H65  LIG A   1       1.679  -0.922   0.993  1.00 20.00    +0.055 H 
ATOM     66 H66  LIG A   1      -0.116   0.782   0.960  1.00 20.00    +0.123 HD
ATOM     67 H67  LIG A   1      -0.687  -1.768  -0.447  1.00 20.00    +0.044 H 
ATOM     68 H68  LIG A   1      -0.635  -1.535   1.305  1.00 20.00    +0.044 H 
ATOM     69 H69  LIG A   1      -2.968  -1.537   0.559  1.00 20.00    +0.039 H 
ATOM     70 H70  LIG A   1      -2.550   0.070   1.166  1.00 20.00    +0.039 H 
ATOM     71 H71  LIG A   1      -1.825   0.897  -1.332  1.00 20.00    +0.102 HD
ENDROOT
TORSDOF 0
