ROOT
ATOM      1 N1   LIG A   1      -7.524  -1.307  -3.154  1.00 20.00    -0.289 NA
ATOM      2 C2   LIG A   1      -8.577  -0.903  -2.528  1.00 20.00    +0.092 C 
ATOM      3 N3   LIG A   1      -8.896   0.420  -2.456  1.00 20.00    -0.388 NA
ATOM      4 C4   LIG A   1      -9.470  -1.934  -1.870  1.00 20.00    +0.022 C 
ATOM      5 C5   LIG A   1      -9.381  -1.907  -0.345  1.00 20.00    +0.022 C 
ATOM      6 N6   LIG A   1      -8.037  -2.249   0.136  1.00 20.00    -0.384 NA
ATOM      7 C7   LIG A   1      -7.205  -1.198   0.549  1.00 20.00    +0.038 A 
ATOM      8 C8   LIG A   1      -7.641  -0.201   1.433  1.00 20.00    -0.038 A 
ATOM      9 C9   LIG A   1      -6.781   0.820   1.850  1.00 20.00    -0.045 A 
ATOM     10 C10  LIG A   1      -5.462   0.834   1.400  1.00 20.00    +0.065 A 
ATOM     11 C11  LIG A   1      -4.532   1.893   1.814  1.00 20.00    +0.193 C 
ATOM     12 O12  LIG A   1      -4.874   2.820   2.537  1.00 20.00    -0.289 OA
ATOM     13 C13  LIG A   1      -3.153   1.792   1.310  1.00 20.00    +0.030 C 
ATOM     14 C14  LIG A   1      -2.822   0.770   0.506  1.00 20.00    +0.138 C 
ATOM     15 C15  LIG A   1      -1.458   0.621  -0.038  1.00 20.00    +0.017 A 
ATOM     16 C16  LIG A   1      -1.268   0.217  -1.363  1.00 20.00    -0.049 A 
ATOM     17 C17  LIG A   1       0.022   0.061  -1.886  1.00 20.00    -0.038 A 
ATOM     18 C18  LIG A   1       1.164   0.318  -1.116  1.00 20.00    +0.034 A 
ATOM     19 N19  LIG A   1       2.413   0.075  -1.684  1.00 20.00    -0.385 NA
ATOM     20 C20  LIG A   1       3.649   0.558  -1.070  1.00 20.00    +0.016 C 
ATOM     21 C21  LIG A   1       4.256  -0.528  -0.181  1.00 20.00    -0.023 C 
ATOM     22 C22  LIG A   1       5.496  -0.046   0.576  1.00 20.00    -0.003 C 
ATOM     23 N23  LIG A   1       6.574   0.308  -0.346  1.00 20.00    -0.317 NA
ATOM     24 C24  LIG A   1       7.746   0.872   0.326  1.00 20.00    -0.005 C 
ATOM     25 C25  LIG A   1       8.593  -0.182   1.048  1.00 20.00    -0.039 C 
ATOM     26 C26  LIG A   1       9.819   0.409   1.754  1.00 20.00    -0.040 C 
ATOM     27 C27  LIG A   1      10.861   0.971   0.787  1.00 20.00    -0.008 C 
ATOM     28 N28  LIG A   1      12.042   1.436   1.507  1.00 20.00    -0.330 NA
ATOM     29 C29  LIG A   1       0.966   0.672   0.221  1.00 20.00    -0.038 A 
ATOM     30 C30  LIG A   1      -0.322   0.833   0.752  1.00 20.00    -0.049 A 
ATOM     31 O31  LIG A   1      -3.709  -0.212   0.090  1.00 20.00    -0.456 OA
ATOM     32 C32  LIG A   1      -5.000  -0.166   0.553  1.00 20.00    +0.140 A 
ATOM     33 C33  LIG A   1      -5.864  -1.181   0.138  1.00 20.00    +0.005 A 
ATOM     34 N34  LIG A   1       3.151  -0.828  -0.168  1.00 20.00    -0.328 NA
ATOM     35 C35  LIG A   1       1.799  -0.428  -0.555  1.00 20.00    +0.016 C 
ATOM     36 C36  LIG A   1       1.108   0.451   0.499  1.00 20.00    +0.059 C 
ATOM     37 O37  LIG A   1      -0.152   0.944   0.044  1.00 20.00    -0.378 OA
ATOM     38 C38  LIG A   1      -1.204  -0.012   0.154  1.00 20.00    +0.070 C 
ATOM     39 C39  LIG A   1      -2.505   0.611  -0.343  1.00 20.00    +0.067 C 
ATOM     40 O40  LIG A   1      -3.594  -0.291  -0.181  1.00 20.00    -0.394 OA
ATOM     41 H41  LIG A   1      -7.044  -0.507  -3.573  1.00 20.00    +0.189 HD
ATOM     42 H42  LIG A   1      -8.127   1.068  -2.580  1.00 20.00    +0.157 HD
ATOM     43 H43  LIG A   1      -9.514   0.702  -1.703  1.00 20.00    +0.157 HD
ATOM     44 H44  LIG A   1      -9.202  -2.929  -2.246  1.00 20.00    +0.037 H 
ATOM     45 H45  LIG A   1     -10.503  -1.736  -2.179  1.00 20.00    +0.037 H 
ATOM     46 H46  LIG A   1      -9.739  -0.943   0.033  1.00 20.00    +0.049 H 
ATOM     47 H47  LIG A   1     -10.069  -2.665   0.048  1.00 20.00    +0.049 H 
ATOM     48 H48  LIG A   1      -7.556  -2.852  -0.534  1.00 20.00    +0.160 HD
ATOM     49 H49  LIG A   1      -8.651  -0.224   1.833  1.00 20.00    +0.064 H 
ATOM     50 H50  LIG A   1      -7.138   1.586   2.535  1.00 20.00    +0.063 H 
ATOM     51 H51  LIG A   1      -2.467   2.572   1.613  1.00 20.00    +0.070 H 
ATOM     52 H52  LIG A   1      -2.121   0.015  -2.007  1.00 20.00    +0.063 H 
ATOM     53 H53  LIG A   1       0.126  -0.273  -2.916  1.00 20.00    +0.064 H 
ATOM     54 H54  LIG A   1       2.407   0.190  -2.695  1.00 20.00    +0.160 HD
ATOM     55 H55  LIG A   1       4.350   0.793  -1.880  1.00 20.00    +0.049 H 
ATOM     56 H56  LIG A   1       3.493   1.496  -0.523  1.00 20.00    +0.049 H 
ATOM     57 H57  LIG A   1       4.505  -1.406  -0.790  1.00 20.00    +0.030 H 
ATOM     58 H58  LIG A   1       3.517  -0.870   0.554  1.00 20.00    +0.030 H 
ATOM     59 H59  LIG A   1       5.817  -0.847   1.250  1.00 20.00    +0.043 H 
ATOM     60 H60  LIG A   1       5.224   0.819   1.193  1.00 20.00    +0.043 H 
ATOM     61 H61  LIG A   1       6.847  -0.512  -0.889  1.00 20.00    +0.122 HD
ATOM     62 H62  LIG A   1       8.350   1.351  -0.450  1.00 20.00    +0.043 H 
ATOM     63 H63  LIG A   1       7.446   1.669   1.017  1.00 20.00    +0.043 H 
ATOM     64 H64  LIG A   1       7.988  -0.689   1.808  1.00 20.00    +0.028 H 
ATOM     65 H65  LIG A   1       8.917  -0.953   0.337  1.00 20.00    +0.028 H 
ATOM     66 H66  LIG A   1      10.278  -0.385   2.357  1.00 20.00    +0.028 H 
ATOM     67 H67  LIG A   1       9.496   1.190   2.455  1.00 20.00    +0.028 H 
ATOM     68 H68  LIG A   1      10.454   1.813   0.220  1.00 20.00    +0.043 H 
ATOM     69 H69  LIG A   1      11.164   0.204   0.067  1.00 20.00    +0.043 H 
ATOM     70 H70  LIG A   1      11.774   2.143   2.191  1.00 20.00    +0.118 HD
ATOM     71 H71  LIG A   1      12.444   0.667   2.044  1.00 20.00    +0.118 HD
ATOM     72 H72  LIG A   1       1.809   0.828   0.886  1.00 20.00    +0.064 H 
ATOM     73 H73  LIG A   1      -0.417   1.104   1.801  1.00 20.00    +0.063 H 
ATOM     74 H74  LIG A   1      -5.486  -1.955  -0.527  1.00 20.00    +0.068 H 
ATOM     75 H75  LIG A   1       3.729   0.002  -0.037  1.00 20.00    +0.118 HD
ATOM     76 H76  LIG A   1       3.129  -1.306   0.732  1.00 20.00    +0.118 HD
ATOM     77 H77  LIG A   1       1.839   0.108  -1.510  1.00 20.00    +0.045 H 
ATOM     78 H78  LIG A   1       1.208  -1.331  -0.741  1.00 20.00    +0.045 H 
ATOM     79 H79  LIG A   1       1.732   1.330   0.697  1.00 20.00    +0.058 H 
ATOM     80 H80  LIG A   1       0.990  -0.082   1.451  1.00 20.00    +0.058 H 
ATOM     81 H81  LIG A   1      -0.981  -0.907  -0.437  1.00 20.00    +0.059 H 
ATOM     82 H82  LIG A   1      -1.319  -0.322   1.200  1.00 20.00    +0.059 H 
ATOM     83 H83  LIG A   1      -2.420   0.865  -1.405  1.00 20.00    +0.059 H 
ATOM     84 H84  LIG A   1      -2.727   1.541   0.190  1.00 20.00    +0.059 H 
ATOM     85 H85  LIG A   1      -3.785  -0.345   0.771  1.00 20.00    +0.210 HD
ENDROOT
TORSDOF 0
