ROOT
ATOM      1 N1   LIG A   1     -10.741   1.168   0.665  1.00 20.00    -0.289 NA
ATOM      2 C2   LIG A   1     -11.169  -0.052   0.621  1.00 20.00    +0.092 C 
ATOM      3 N3   LIG A   1     -12.443  -0.305   1.021  1.00 20.00    -0.388 NA
ATOM      4 C4   LIG A   1     -10.281  -1.188   0.156  1.00 20.00    +0.022 C 
ATOM      5 C5   LIG A   1      -9.730  -0.934  -1.245  1.00 20.00    +0.022 C 
ATOM      6 N6   LIG A   1      -8.710   0.118  -1.241  1.00 20.00    -0.384 NA
ATOM      7 C7   LIG A   1      -7.354  -0.168  -1.080  1.00 20.00    +0.038 A 
ATOM      8 C8   LIG A   1      -6.866  -1.364  -0.541  1.00 20.00    -0.038 A 
ATOM      9 C9   LIG A   1      -5.495  -1.564  -0.335  1.00 20.00    -0.045 A 
ATOM     10 C10  LIG A   1      -4.592  -0.548  -0.644  1.00 20.00    +0.065 A 
ATOM     11 C11  LIG A   1      -3.144  -0.732  -0.436  1.00 20.00    +0.200 C 
ATOM     12 O12  LIG A   1      -2.708  -1.790   0.003  1.00 20.00    -0.288 OA
ATOM     13 C13  LIG A   1      -2.269   0.422  -0.789  1.00 20.00    +0.065 C 
ATOM     14 C14  LIG A   1      -0.805   0.387  -0.616  1.00 20.00    -0.011 A 
ATOM     15 C15  LIG A   1       0.058   0.779  -1.645  1.00 20.00    -0.052 A 
ATOM     16 C16  LIG A   1       1.446   0.750  -1.463  1.00 20.00    -0.038 A 
ATOM     17 C17  LIG A   1       2.019   0.302  -0.265  1.00 20.00    +0.034 A 
ATOM     18 N18  LIG A   1       3.410   0.364  -0.130  1.00 20.00    -0.385 NA
ATOM     19 C19  LIG A   1       4.064  -0.369   0.950  1.00 20.00    +0.016 C 
ATOM     20 C20  LIG A   1       5.585  -0.231   0.847  1.00 20.00    -0.023 C 
ATOM     21 C21  LIG A   1       6.054   1.198   1.145  1.00 20.00    -0.003 C 
ATOM     22 N22  LIG A   1       7.515   1.336   1.181  1.00 20.00    -0.317 NA
ATOM     23 C23  LIG A   1       8.121   1.264  -0.147  1.00 20.00    -0.005 C 
ATOM     24 C24  LIG A   1       9.611   1.616  -0.099  1.00 20.00    -0.039 C 
ATOM     25 C25  LIG A   1      10.493   0.826   0.878  1.00 20.00    -0.040 C 
ATOM     26 C26  LIG A   1      10.412  -0.696   0.753  1.00 20.00    -0.008 C 
ATOM     27 N27  LIG A   1       9.273  -1.247   1.484  1.00 20.00    -0.330 NA
ATOM     28 C28  LIG A   1       1.150  -0.056   0.769  1.00 20.00    -0.038 A 
ATOM     29 C29  LIG A   1      -0.241  -0.031   0.594  1.00 20.00    -0.052 A 
ATOM     30 C30  LIG A   1      -2.877   1.528  -1.250  1.00 20.00    +0.103 C 
ATOM     31 O31  LIG A   1      -4.224   1.706  -1.449  1.00 20.00    -0.463 OA
ATOM     32 C32  LIG A   1      -5.057   0.661  -1.144  1.00 20.00    +0.139 A 
ATOM     33 C33  LIG A   1      -6.426   0.852  -1.348  1.00 20.00    +0.005 A 
ATOM     34 N34  LIG A   1       1.877   0.426   0.807  1.00 20.00    -0.330 NA
ATOM     35 C35  LIG A   1       1.075   0.569  -0.407  1.00 20.00    -0.007 C 
ATOM     36 C36  LIG A   1       0.094  -0.593  -0.576  1.00 20.00    -0.029 C 
ATOM     37 C37  LIG A   1      -1.076  -0.566   0.410  1.00 20.00    -0.007 C 
ATOM     38 N38  LIG A   1      -2.024   0.501   0.094  1.00 20.00    -0.330 NA
ATOM     39 H39  LIG A   1      -9.759   1.181   0.336  1.00 20.00    +0.189 HD
ATOM     40 H40  LIG A   1     -12.992   0.545   1.111  1.00 20.00    +0.157 HD
ATOM     41 H41  LIG A   1     -12.937  -1.075   0.591  1.00 20.00    +0.157 HD
ATOM     42 H42  LIG A   1      -9.480  -1.310   0.893  1.00 20.00    +0.037 H 
ATOM     43 H43  LIG A   1     -10.870  -2.112   0.150  1.00 20.00    +0.037 H 
ATOM     44 H44  LIG A   1     -10.548  -0.607  -1.899  1.00 20.00    +0.049 H 
ATOM     45 H45  LIG A   1      -9.341  -1.859  -1.685  1.00 20.00    +0.049 H 
ATOM     46 H46  LIG A   1      -8.872   0.818  -1.966  1.00 20.00    +0.160 HD
ATOM     47 H47  LIG A   1      -7.537  -2.173  -0.266  1.00 20.00    +0.064 H 
ATOM     48 H48  LIG A   1      -5.141  -2.508   0.074  1.00 20.00    +0.063 H 
ATOM     49 H49  LIG A   1      -0.334   1.112  -2.604  1.00 20.00    +0.063 H 
ATOM     50 H50  LIG A   1       2.085   1.085  -2.277  1.00 20.00    +0.064 H 
ATOM     51 H51  LIG A   1       3.870   0.240  -1.030  1.00 20.00    +0.160 HD
ATOM     52 H52  LIG A   1       3.736   0.002   1.927  1.00 20.00    +0.049 H 
ATOM     53 H53  LIG A   1       3.806  -1.433   0.881  1.00 20.00    +0.049 H 
ATOM     54 H54  LIG A   1       5.914  -0.545  -0.150  1.00 20.00    +0.030 H 
ATOM     55 H55  LIG A   1       6.042  -0.919   1.570  1.00 20.00    +0.030 H 
ATOM     56 H56  LIG A   1       5.679   1.492   2.132  1.00 20.00    +0.043 H 
ATOM     57 H57  LIG A   1       5.626   1.911   0.431  1.00 20.00    +0.043 H 
ATOM     58 H58  LIG A   1       7.907   0.559   1.724  1.00 20.00    +0.122 HD
ATOM     59 H59  LIG A   1       7.996   0.267  -0.583  1.00 20.00    +0.043 H 
ATOM     60 H60  LIG A   1       7.630   1.975  -0.823  1.00 20.00    +0.043 H 
ATOM     61 H61  LIG A   1      10.018   1.491  -1.111  1.00 20.00    +0.028 H 
ATOM     62 H62  LIG A   1       9.716   2.683   0.138  1.00 20.00    +0.028 H 
ATOM     63 H63  LIG A   1      10.280   1.135   1.910  1.00 20.00    +0.028 H 
ATOM     64 H64  LIG A   1      11.533   1.126   0.692  1.00 20.00    +0.028 H 
ATOM     65 H65  LIG A   1      10.355  -0.990  -0.300  1.00 20.00    +0.043 H 
ATOM     66 H66  LIG A   1      11.326  -1.139   1.165  1.00 20.00    +0.043 H 
ATOM     67 H67  LIG A   1       9.420  -1.095   2.483  1.00 20.00    +0.118 HD
ATOM     68 H68  LIG A   1       9.263  -2.260   1.362  1.00 20.00    +0.118 HD
ATOM     69 H69  LIG A   1       1.528  -0.369   1.737  1.00 20.00    +0.064 H 
ATOM     70 H70  LIG A   1      -0.877  -0.340   1.421  1.00 20.00    +0.063 H 
ATOM     71 H71  LIG A   1      -2.353   2.439  -1.515  1.00 20.00    +0.105 H 
ATOM     72 H72  LIG A   1      -6.769   1.816  -1.718  1.00 20.00    +0.068 H 
ATOM     73 H73  LIG A   1       2.474  -0.396   0.726  1.00 20.00    +0.118 HD
ATOM     74 H74  LIG A   1       2.502   1.227   0.887  1.00 20.00    +0.118 HD
ATOM     75 H75  LIG A   1       0.545   1.526  -0.384  1.00 20.00    +0.043 H 
ATOM     76 H76  LIG A   1       1.752   0.594  -1.268  1.00 20.00    +0.043 H 
ATOM     77 H77  LIG A   1      -0.294  -0.584  -1.603  1.00 20.00    +0.029 H 
ATOM     78 H78  LIG A   1       0.631  -1.544  -0.465  1.00 20.00    +0.029 H 
ATOM     79 H79  LIG A   1      -1.606  -1.524   0.365  1.00 20.00    +0.043 H 
ATOM     80 H80  LIG A   1      -0.716  -0.443   1.437  1.00 20.00    +0.043 H 
ATOM     81 H81  LIG A   1      -2.774   0.493   0.784  1.00 20.00    +0.118 HD
ATOM     82 H82  LIG A   1      -2.461   0.314  -0.807  1.00 20.00    +0.118 HD
ENDROOT
TORSDOF 0
