ROOT
ATOM      1 C1   LIG A   1      -2.395  -1.135   0.885  1.00 20.00    -0.044 C 
ATOM      2 C2   LIG A   1      -1.207  -0.539   0.075  1.00 20.00    +0.047 C 
ATOM      3 C3   LIG A   1      -1.325  -1.086  -1.369  1.00 20.00    -0.044 C 
ATOM      4 C4   LIG A   1      -1.438   1.003   0.059  1.00 20.00    -0.006 C 
ATOM      5 C5   LIG A   1      -0.159   1.832   0.177  1.00 20.00    +0.058 C 
ATOM      6 O6   LIG A   1      -0.371   3.127  -0.405  1.00 20.00    -0.393 OA
ATOM      7 C7   LIG A   1       1.006   1.147  -0.512  1.00 20.00    -0.006 C 
ATOM      8 C8   LIG A   1       1.321  -0.218   0.159  1.00 20.00    +0.047 C 
ATOM      9 C9   LIG A   1       2.089  -1.072  -0.885  1.00 20.00    -0.044 C 
ATOM     10 C10  LIG A   1       2.293   0.050   1.340  1.00 20.00    -0.044 C 
ATOM     11 N11  LIG A   1       0.087  -0.812   0.740  1.00 20.00    -0.144 NA
ATOM     12 O12  LIG A   1       0.264  -2.216   0.975  1.00 20.00    -0.120 OA
ATOM     13 N13  LIG A   1       5.020   1.595  -1.609  1.00 20.00    -0.330 NA
ATOM     14 C14  LIG A   1       5.932   1.085  -0.594  1.00 20.00    -0.008 C 
ATOM     15 C15  LIG A   1       5.881  -0.441  -0.496  1.00 20.00    -0.040 C 
ATOM     16 C16  LIG A   1       4.501  -1.036  -0.186  1.00 20.00    -0.039 C 
ATOM     17 C17  LIG A   1       3.906  -0.525   1.129  1.00 20.00    -0.005 C 
ATOM     18 N18  LIG A   1       2.714  -1.274   1.546  1.00 20.00    -0.317 NA
ATOM     19 C19  LIG A   1       1.547  -0.972   0.707  1.00 20.00    -0.003 C 
ATOM     20 C20  LIG A   1       0.329  -1.732   1.241  1.00 20.00    -0.023 C 
ATOM     21 C21  LIG A   1      -0.908  -1.521   0.365  1.00 20.00    +0.017 C 
ATOM     22 N22  LIG A   1      -1.385  -0.145   0.493  1.00 20.00    -0.370 NA
ATOM     23 C23  LIG A   1      -2.558   0.116  -0.219  1.00 20.00    +0.126 A 
ATOM     24 C24  LIG A   1      -2.626  -0.013  -1.599  1.00 20.00    -0.019 A 
ATOM     25 C25  LIG A   1      -3.824   0.277  -2.244  1.00 20.00    -0.049 A 
ATOM     26 C26  LIG A   1      -4.926   0.697  -1.494  1.00 20.00    +0.000 A 
ATOM     27 C27  LIG A   1      -6.159   1.003  -2.096  1.00 20.00    -0.053 A 
ATOM     28 C28  LIG A   1      -7.236   1.422  -1.318  1.00 20.00    -0.062 A 
ATOM     29 C29  LIG A   1      -7.084   1.538   0.059  1.00 20.00    -0.060 A 
ATOM     30 C30  LIG A   1      -5.854   1.234   0.652  1.00 20.00    -0.036 A 
ATOM     31 C31  LIG A   1      -4.764   0.812  -0.099  1.00 20.00    +0.073 A 
ATOM     32 N32  LIG A   1      -3.603   0.529   0.521  1.00 20.00    -0.231 NA
ATOM     33 H33  LIG A   1      -3.355  -0.788   0.483  1.00 20.00    +0.025 H 
ATOM     34 H34  LIG A   1      -2.352  -0.830   1.938  1.00 20.00    +0.025 H 
ATOM     35 H35  LIG A   1      -2.414  -2.230   0.851  1.00 20.00    +0.025 H 
ATOM     36 H36  LIG A   1      -1.147  -2.166  -1.413  1.00 20.00    +0.025 H 
ATOM     37 H37  LIG A   1      -2.333  -0.915  -1.766  1.00 20.00    +0.025 H 
ATOM     38 H38  LIG A   1      -0.633  -0.602  -2.062  1.00 20.00    +0.025 H 
ATOM     39 H39  LIG A   1      -1.986   1.295  -0.847  1.00 20.00    +0.031 H 
ATOM     40 H40  LIG A   1      -2.088   1.312   0.890  1.00 20.00    +0.031 H 
ATOM     41 H41  LIG A   1       0.080   2.001   1.233  1.00 20.00    +0.060 H 
ATOM     42 H42  LIG A   1      -1.132   3.504   0.068  1.00 20.00    +0.210 HD
ATOM     43 H43  LIG A   1       0.767   1.027  -1.576  1.00 20.00    +0.031 H 
ATOM     44 H44  LIG A   1       1.883   1.807  -0.497  1.00 20.00    +0.031 H 
ATOM     45 H45  LIG A   1       2.933  -0.507  -1.299  1.00 20.00    +0.025 H 
ATOM     46 H46  LIG A   1       2.509  -1.985  -0.447  1.00 20.00    +0.025 H 
ATOM     47 H47  LIG A   1       1.455  -1.366  -1.726  1.00 20.00    +0.025 H 
ATOM     48 H48  LIG A   1       3.199   0.563   0.997  1.00 20.00    +0.025 H 
ATOM     49 H49  LIG A   1       2.615  -0.880   1.822  1.00 20.00    +0.025 H 
ATOM     50 H50  LIG A   1       1.832   0.679   2.110  1.00 20.00    +0.025 H 
ATOM     51 H51  LIG A   1       5.261   1.201  -2.518  1.00 20.00    +0.118 HD
ATOM     52 H52  LIG A   1       5.137   2.604  -1.695  1.00 20.00    +0.118 HD
ATOM     53 H53  LIG A   1       6.953   1.392  -0.844  1.00 20.00    +0.043 H 
ATOM     54 H54  LIG A   1       5.690   1.539   0.372  1.00 20.00    +0.043 H 
ATOM     55 H55  LIG A   1       6.239  -0.875  -1.439  1.00 20.00    +0.028 H 
ATOM     56 H56  LIG A   1       6.589  -0.763   0.278  1.00 20.00    +0.028 H 
ATOM     57 H57  LIG A   1       3.821  -0.828  -1.020  1.00 20.00    +0.028 H 
ATOM     58 H58  LIG A   1       4.608  -2.127  -0.137  1.00 20.00    +0.028 H 
ATOM     59 H59  LIG A   1       4.657  -0.644   1.919  1.00 20.00    +0.043 H 
ATOM     60 H60  LIG A   1       3.677   0.545   1.073  1.00 20.00    +0.043 H 
ATOM     61 H61  LIG A   1       2.494  -1.011   2.507  1.00 20.00    +0.122 HD
ATOM     62 H62  LIG A   1       1.347   0.105   0.714  1.00 20.00    +0.043 H 
ATOM     63 H63  LIG A   1       1.730  -1.281  -0.327  1.00 20.00    +0.043 H 
ATOM     64 H64  LIG A   1       0.555  -2.806   1.265  1.00 20.00    +0.030 H 
ATOM     65 H65  LIG A   1       0.114  -1.424   2.272  1.00 20.00    +0.030 H 
ATOM     66 H66  LIG A   1      -0.660  -1.763  -0.675  1.00 20.00    +0.049 H 
ATOM     67 H67  LIG A   1      -1.692  -2.215   0.694  1.00 20.00    +0.049 H 
ATOM     68 H68  LIG A   1      -1.651   0.062   1.457  1.00 20.00    +0.162 HD
ATOM     69 H69  LIG A   1      -1.756  -0.312  -2.172  1.00 20.00    +0.066 H 
ATOM     70 H70  LIG A   1      -3.885   0.182  -3.324  1.00 20.00    +0.063 H 
ATOM     71 H71  LIG A   1      -6.285   0.916  -3.173  1.00 20.00    +0.063 H 
ATOM     72 H72  LIG A   1      -8.189   1.659  -1.785  1.00 20.00    +0.062 H 
ATOM     73 H73  LIG A   1      -7.916   1.866   0.677  1.00 20.00    +0.062 H 
ATOM     74 H74  LIG A   1      -5.742   1.328   1.729  1.00 20.00    +0.065 H 
ENDROOT
TORSDOF 0
