ROOT
ATOM      1 C1   LIG A   1       4.224  -1.215  -1.237  1.00 20.00    -0.060 C 
ATOM      2 C2   LIG A   1       3.272  -0.065  -0.850  1.00 20.00    -0.016 C 
ATOM      3 C3   LIG A   1       2.424   0.337  -2.100  1.00 20.00    -0.023 C 
ATOM      4 C4   LIG A   1       1.040  -0.250  -2.129  1.00 20.00    -0.047 A 
ATOM      5 C5   LIG A   1       0.831  -1.605  -2.357  1.00 20.00    -0.059 A 
ATOM      6 C6   LIG A   1      -0.368  -2.185  -1.956  1.00 20.00    -0.057 A 
ATOM      7 C7   LIG A   1      -1.342  -1.425  -1.270  1.00 20.00    -0.023 A 
ATOM      8 C8   LIG A   1      -1.210  -0.020  -1.240  1.00 20.00    +0.027 A 
ATOM      9 C9   LIG A   1      -0.033   0.554  -1.730  1.00 20.00    -0.048 A 
ATOM     10 C10  LIG A   1      -2.193   0.884  -0.569  1.00 20.00    +0.194 C 
ATOM     11 O11  LIG A   1      -3.379   0.598  -0.476  1.00 20.00    -0.289 OA
ATOM     12 C12  LIG A   1      -1.761   2.184  -0.018  1.00 20.00    +0.035 A 
ATOM     13 C13  LIG A   1      -2.169   3.338  -0.700  1.00 20.00    -0.050 A 
ATOM     14 C14  LIG A   1      -1.816   4.597  -0.212  1.00 20.00    -0.061 A 
ATOM     15 C15  LIG A   1      -1.078   4.708   0.967  1.00 20.00    -0.061 A 
ATOM     16 C16  LIG A   1      -0.694   3.560   1.664  1.00 20.00    -0.049 A 
ATOM     17 C17  LIG A   1      -1.016   2.292   1.162  1.00 20.00    +0.051 A 
ATOM     18 C18  LIG A   1      -0.700   1.119   2.001  1.00 20.00    +0.261 C 
ATOM     19 O19  LIG A   1      -1.345   1.015   3.044  1.00 20.00    -0.269 OA
ATOM     20 N20  LIG A   1       0.297   0.204   1.605  1.00 20.00    -0.277 NA
ATOM     21 C21  LIG A   1       0.205  -1.105   2.285  1.00 20.00    +0.029 C 
ATOM     22 C22  LIG A   1      -0.527  -2.216   1.509  1.00 20.00    -0.034 C 
ATOM     23 C23  LIG A   1      -2.000  -1.941   1.119  1.00 20.00    -0.034 C 
ATOM     24 C24  LIG A   1      -2.309  -2.211  -0.383  1.00 20.00    +0.082 C 
ATOM     25 C25  LIG A   1      -3.764  -2.069  -0.799  1.00 20.00    +0.310 C 
ATOM     26 O26  LIG A   1      -4.178  -1.983  -1.947  1.00 20.00    -0.252 OA
ATOM     27 O27  LIG A   1      -4.636  -2.153   0.224  1.00 20.00    -0.481 OA
ATOM     28 C28  LIG A   1       1.444   0.633   0.910  1.00 20.00    +0.246 C 
ATOM     29 O29  LIG A   1       1.669   1.824   0.671  1.00 20.00    -0.273 OA
ATOM     30 C30  LIG A   1       2.504  -0.423   0.478  1.00 20.00    +0.088 C 
ATOM     31 N31  LIG A   1       3.514  -0.522   1.566  1.00 20.00    -0.320 NA
ATOM     32 C32  LIG A   1      -3.251   0.775   0.014  1.00 20.00    -0.048 C 
ATOM     33 C33  LIG A   1      -2.207  -0.313   0.205  1.00 20.00    +0.015 C 
ATOM     34 N34  LIG A   1      -0.877   0.236  -0.004  1.00 20.00    -0.357 NA
ATOM     35 C35  LIG A   1       0.266  -0.512   0.014  1.00 20.00    +0.195 C 
ATOM     36 N36  LIG A   1       0.315  -1.796   0.123  1.00 20.00    -0.269 NA
ATOM     37 N37  LIG A   1       1.390   0.249  -0.118  1.00 20.00    -0.298 NA
ATOM     38 C38  LIG A   1       2.708  -0.059  -0.040  1.00 20.00    +0.192 C 
ATOM     39 N39  LIG A   1       3.219  -1.201   0.260  1.00 20.00    -0.269 NA
ATOM     40 N40  LIG A   1       3.540   0.977  -0.301  1.00 20.00    -0.370 NA
ATOM     41 H41  LIG A   1       4.965  -1.405  -0.453  1.00 20.00    +0.023 H 
ATOM     42 H42  LIG A   1       4.782  -0.972  -2.148  1.00 20.00    +0.023 H 
ATOM     43 H43  LIG A   1       3.676  -2.146  -1.413  1.00 20.00    +0.023 H 
ATOM     44 H44  LIG A   1       3.918   0.803  -0.649  1.00 20.00    +0.032 H 
ATOM     45 H45  LIG A   1       2.348   1.433  -2.118  1.00 20.00    +0.032 H 
ATOM     46 H46  LIG A   1       2.943   0.080  -3.032  1.00 20.00    +0.032 H 
ATOM     47 H47  LIG A   1       1.628  -2.237  -2.741  1.00 20.00    +0.063 H 
ATOM     48 H48  LIG A   1      -0.471  -3.266  -2.044  1.00 20.00    +0.063 H 
ATOM     49 H49  LIG A   1       0.132   1.629  -1.662  1.00 20.00    +0.063 H 
ATOM     50 H50  LIG A   1      -2.772   3.257  -1.603  1.00 20.00    +0.063 H 
ATOM     51 H51  LIG A   1      -2.131   5.493  -0.742  1.00 20.00    +0.062 H 
ATOM     52 H52  LIG A   1      -0.818   5.690   1.355  1.00 20.00    +0.062 H 
ATOM     53 H53  LIG A   1      -0.148   3.654   2.601  1.00 20.00    +0.063 H 
ATOM     54 H54  LIG A   1       1.207  -1.465   2.523  1.00 20.00    +0.050 H 
ATOM     55 H55  LIG A   1      -0.291  -0.990   3.256  1.00 20.00    +0.050 H 
ATOM     56 H56  LIG A   1      -0.522  -3.109   2.149  1.00 20.00    +0.029 H 
ATOM     57 H57  LIG A   1       0.077  -2.498   0.646  1.00 20.00    +0.029 H 
ATOM     58 H58  LIG A   1      -2.308  -0.934   1.404  1.00 20.00    +0.028 H 
ATOM     59 H59  LIG A   1      -2.631  -2.605   1.725  1.00 20.00    +0.028 H 
ATOM     60 H60  LIG A   1      -2.117  -3.285  -0.531  1.00 20.00    +0.047 H 
ATOM     61 H61  LIG A   1      -5.495  -1.941  -0.199  1.00 20.00    +0.296 HD
ATOM     62 H62  LIG A   1       2.029  -1.399   0.357  1.00 20.00    +0.057 H 
ATOM     63 H63  LIG A   1       3.065  -0.610   2.475  1.00 20.00    +0.119 HD
ATOM     64 H64  LIG A   1       4.025   0.363   1.610  1.00 20.00    +0.119 HD
ATOM     65 H65  LIG A   1      -3.107   1.588   0.733  1.00 20.00    +0.025 H 
ATOM     66 H66  LIG A   1      -3.192   1.203  -0.992  1.00 20.00    +0.025 H 
ATOM     67 H67  LIG A   1      -4.256   0.367   0.156  1.00 20.00    +0.025 H 
ATOM     68 H68  LIG A   1      -2.285  -0.725   1.216  1.00 20.00    +0.049 H 
ATOM     69 H69  LIG A   1      -2.399  -1.118  -0.513  1.00 20.00    +0.049 H 
ATOM     70 H70  LIG A   1      -0.769   1.147   0.430  1.00 20.00    +0.163 HD
ATOM     71 H71  LIG A   1      -0.625  -2.182   0.192  1.00 20.00    +0.191 HD
ATOM     72 H72  LIG A   1       1.225   1.223  -0.303  1.00 20.00    +0.173 HD
ATOM     73 H73  LIG A   1       2.405  -1.832   0.399  1.00 20.00    +0.191 HD
ATOM     74 H74  LIG A   1       4.493   0.620  -0.240  1.00 20.00    +0.159 HD
ATOM     75 H75  LIG A   1       3.407   1.356  -1.231  1.00 20.00    +0.159 HD
ENDROOT
TORSDOF 0
