ROOT
ATOM      1 C1   LIG A   1      -3.203   0.952  -0.023  1.00 20.00    -0.048 C 
ATOM      2 C2   LIG A   1      -2.227  -0.206   0.098  1.00 20.00    +0.015 C 
ATOM      3 N3   LIG A   1      -0.862   0.284  -0.005  1.00 20.00    -0.357 NA
ATOM      4 C4   LIG A   1       0.238  -0.525  -0.022  1.00 20.00    +0.195 C 
ATOM      5 N5   LIG A   1       0.215  -1.815  -0.041  1.00 20.00    -0.269 NA
ATOM      6 N6   LIG A   1       1.406   0.180  -0.038  1.00 20.00    -0.298 NA
ATOM      7 C7   LIG A   1       2.702  -0.208   0.046  1.00 20.00    +0.192 C 
ATOM      8 N8   LIG A   1       3.140  -1.401   0.246  1.00 20.00    -0.269 NA
ATOM      9 N9   LIG A   1       3.597   0.799  -0.089  1.00 20.00    -0.370 NA
ATOM     10 N10  LIG A   1     -13.576   1.392  -2.134  1.00 20.00    -0.330 NA
ATOM     11 C11  LIG A   1     -12.258   1.729  -2.663  1.00 20.00    -0.008 C 
ATOM     12 C12  LIG A   1     -11.247   0.625  -2.362  1.00 20.00    -0.040 C 
ATOM     13 C13  LIG A   1      -9.863   0.974  -2.921  1.00 20.00    -0.039 C 
ATOM     14 C14  LIG A   1      -8.832  -0.135  -2.694  1.00 20.00    -0.005 C 
ATOM     15 N15  LIG A   1      -8.591  -0.342  -1.266  1.00 20.00    -0.317 NA
ATOM     16 C16  LIG A   1      -7.647  -1.439  -1.038  1.00 20.00    -0.003 C 
ATOM     17 C17  LIG A   1      -7.424  -1.623   0.464  1.00 20.00    -0.023 C 
ATOM     18 C18  LIG A   1      -6.571  -2.852   0.782  1.00 20.00    +0.016 C 
ATOM     19 N19  LIG A   1      -5.206  -2.742   0.284  1.00 20.00    -0.385 NA
ATOM     20 C20  LIG A   1      -4.241  -1.927   0.864  1.00 20.00    +0.034 A 
ATOM     21 C21  LIG A   1      -4.355  -1.364   2.137  1.00 20.00    -0.038 A 
ATOM     22 C22  LIG A   1      -3.310  -0.615   2.702  1.00 20.00    -0.049 A 
ATOM     23 C23  LIG A   1      -2.101  -0.431   2.020  1.00 20.00    +0.017 A 
ATOM     24 C24  LIG A   1      -1.008   0.326   2.625  1.00 20.00    +0.134 A 
ATOM     25 C25  LIG A   1      -0.865   1.065   3.782  1.00 20.00    -0.015 A 
ATOM     26 C26  LIG A   1       0.475   1.524   3.812  1.00 20.00    -0.015 A 
ATOM     27 C27  LIG A   1       1.085   1.047   2.669  1.00 20.00    +0.134 A 
ATOM     28 C28  LIG A   1       2.433   1.136   2.114  1.00 20.00    +0.017 A 
ATOM     29 C29  LIG A   1       3.487   1.655   2.872  1.00 20.00    -0.049 A 
ATOM     30 C30  LIG A   1       4.788   1.731   2.348  1.00 20.00    -0.038 A 
ATOM     31 C31  LIG A   1       5.072   1.323   1.043  1.00 20.00    +0.034 A 
ATOM     32 N32  LIG A   1       6.348   1.304   0.490  1.00 20.00    -0.385 NA
ATOM     33 C33  LIG A   1       7.481   2.006   1.085  1.00 20.00    +0.016 C 
ATOM     34 C34  LIG A   1       8.246   1.099   2.052  1.00 20.00    -0.023 C 
ATOM     35 C35  LIG A   1       8.967  -0.058   1.353  1.00 20.00    -0.003 C 
ATOM     36 N36  LIG A   1      10.088   0.437   0.544  1.00 20.00    -0.317 NA
ATOM     37 C37  LIG A   1      10.718  -0.626  -0.242  1.00 20.00    -0.005 C 
ATOM     38 C38  LIG A   1       9.907  -1.056  -1.473  1.00 20.00    -0.039 C 
ATOM     39 C39  LIG A   1       9.645   0.099  -2.447  1.00 20.00    -0.040 C 
ATOM     40 C40  LIG A   1       8.774  -0.295  -3.642  1.00 20.00    -0.008 C 
ATOM     41 N41  LIG A   1       9.391  -1.300  -4.500  1.00 20.00    -0.330 NA
ATOM     42 C42  LIG A   1       4.018   0.775   0.301  1.00 20.00    -0.038 A 
ATOM     43 C43  LIG A   1       2.720   0.689   0.819  1.00 20.00    -0.049 A 
ATOM     44 O44  LIG A   1       0.177   0.328   1.944  1.00 20.00    -0.456 OA
ATOM     45 C45  LIG A   1      -1.972  -1.016   0.756  1.00 20.00    -0.049 A 
ATOM     46 C46  LIG A   1      -3.021  -1.758   0.196  1.00 20.00    -0.038 A 
ATOM     47 H47  LIG A   1      -3.045   1.685   0.775  1.00 20.00    +0.025 H 
ATOM     48 H48  LIG A   1      -3.083   1.468  -0.981  1.00 20.00    +0.025 H 
ATOM     49 H49  LIG A   1      -4.234   0.591   0.045  1.00 20.00    +0.025 H 
ATOM     50 H50  LIG A   1      -2.370  -0.710   1.060  1.00 20.00    +0.049 H 
ATOM     51 H51  LIG A   1      -2.429  -0.926  -0.703  1.00 20.00    +0.049 H 
ATOM     52 H52  LIG A   1      -0.725   1.142   0.519  1.00 20.00    +0.163 HD
ATOM     53 H53  LIG A   1      -0.747  -2.151  -0.044  1.00 20.00    +0.191 HD
ATOM     54 H54  LIG A   1       1.300   1.176  -0.126  1.00 20.00    +0.173 HD
ATOM     55 H55  LIG A   1       2.289  -1.994   0.300  1.00 20.00    +0.191 HD
ATOM     56 H56  LIG A   1       4.526   0.384  -0.040  1.00 20.00    +0.159 HD
ATOM     57 H57  LIG A   1       3.512   1.275  -0.978  1.00 20.00    +0.159 HD
ATOM     58 H58  LIG A   1     -13.879   0.500  -2.525  1.00 20.00    +0.118 HD
ATOM     59 H59  LIG A   1     -13.505   1.241  -1.128  1.00 20.00    +0.118 HD
ATOM     60 H60  LIG A   1     -11.929   2.676  -2.221  1.00 20.00    +0.043 H 
ATOM     61 H61  LIG A   1     -12.340   1.885  -3.745  1.00 20.00    +0.043 H 
ATOM     62 H62  LIG A   1     -11.588  -0.321  -2.801  1.00 20.00    +0.028 H 
ATOM     63 H63  LIG A   1     -11.186   0.473  -1.277  1.00 20.00    +0.028 H 
ATOM     64 H64  LIG A   1      -9.945   1.152  -4.001  1.00 20.00    +0.028 H 
ATOM     65 H65  LIG A   1      -9.507   1.911  -2.474  1.00 20.00    +0.028 H 
ATOM     66 H66  LIG A   1      -7.897   0.146  -3.194  1.00 20.00    +0.043 H 
ATOM     67 H67  LIG A   1      -9.194  -1.061  -3.157  1.00 20.00    +0.043 H 
ATOM     68 H68  LIG A   1      -8.218   0.516  -0.857  1.00 20.00    +0.122 HD
ATOM     69 H69  LIG A   1      -6.694  -1.223  -1.535  1.00 20.00    +0.043 H 
ATOM     70 H70  LIG A   1      -8.051  -2.366  -1.462  1.00 20.00    +0.043 H 
ATOM     71 H71  LIG A   1      -6.970  -0.719   0.886  1.00 20.00    +0.030 H 
ATOM     72 H72  LIG A   1      -8.394  -1.750   0.960  1.00 20.00    +0.030 H 
ATOM     73 H73  LIG A   1      -6.577  -3.049   1.860  1.00 20.00    +0.049 H 
ATOM     74 H74  LIG A   1      -7.027  -3.736   0.320  1.00 20.00    +0.049 H 
ATOM     75 H75  LIG A   1      -5.116  -2.826  -0.723  1.00 20.00    +0.160 HD
ATOM     76 H76  LIG A   1      -5.257  -1.492   2.727  1.00 20.00    +0.064 H 
ATOM     77 H77  LIG A   1      -3.456  -0.196   3.694  1.00 20.00    +0.063 H 
ATOM     78 H78  LIG A   1      -1.630   1.248   4.523  1.00 20.00    +0.066 H 
ATOM     79 H79  LIG A   1       0.938   2.127   4.580  1.00 20.00    +0.066 H 
ATOM     80 H80  LIG A   1       3.323   1.993   3.892  1.00 20.00    +0.063 H 
ATOM     81 H81  LIG A   1       5.568   2.119   2.995  1.00 20.00    +0.064 H 
ATOM     82 H82  LIG A   1       6.341   1.349  -0.526  1.00 20.00    +0.160 HD
ATOM     83 H83  LIG A   1       8.148   2.334   0.277  1.00 20.00    +0.049 H 
ATOM     84 H84  LIG A   1       7.159   2.925   1.589  1.00 20.00    +0.049 H 
ATOM     85 H85  LIG A   1       8.976   1.704   2.607  1.00 20.00    +0.030 H 
ATOM     86 H86  LIG A   1       7.561   0.679   2.797  1.00 20.00    +0.030 H 
ATOM     87 H87  LIG A   1       9.350  -0.747   2.115  1.00 20.00    +0.043 H 
ATOM     88 H88  LIG A   1       8.248  -0.614   0.743  1.00 20.00    +0.043 H 
ATOM     89 H89  LIG A   1      10.787   0.835   1.173  1.00 20.00    +0.122 HD
ATOM     90 H90  LIG A   1      11.690  -0.254  -0.588  1.00 20.00    +0.043 H 
ATOM     91 H91  LIG A   1      10.931  -1.498   0.389  1.00 20.00    +0.043 H 
ATOM     92 H92  LIG A   1       8.957  -1.509  -1.166  1.00 20.00    +0.028 H 
ATOM     93 H93  LIG A   1      10.474  -1.844  -1.983  1.00 20.00    +0.028 H 
ATOM     94 H94  LIG A   1      10.601   0.501  -2.803  1.00 20.00    +0.028 H 
ATOM     95 H95  LIG A   1       9.136   0.916  -1.923  1.00 20.00    +0.028 H 
ATOM     96 H96  LIG A   1       7.800  -0.664  -3.297  1.00 20.00    +0.043 H 
ATOM     97 H97  LIG A   1       8.580   0.599  -4.246  1.00 20.00    +0.043 H 
ATOM     98 H98  LIG A   1      10.326  -0.995  -4.766  1.00 20.00    +0.118 HD
ATOM     99 H99  LIG A   1       9.514  -2.169  -3.983  1.00 20.00    +0.118 HD
ATOM    100 H100 LIG A   1       4.201   0.393  -0.701  1.00 20.00    +0.064 H 
ATOM    101 H101 LIG A   1       1.936   0.258   0.199  1.00 20.00    +0.063 H 
ATOM    102 H102 LIG A   1      -1.047  -0.915   0.193  1.00 20.00    +0.063 H 
ATOM    103 H103 LIG A   1      -2.865  -2.218  -0.777  1.00 20.00    +0.064 H 
ENDROOT
TORSDOF 0
