ROOT
ATOM      1 C1   LIG A   1      -0.568   0.782   2.591  1.00 20.00    -0.060 C 
ATOM      2 C2   LIG A   1       0.068   0.753   1.194  1.00 20.00    -0.016 C 
ATOM      3 C3   LIG A   1      -0.851   1.424   0.138  1.00 20.00    -0.022 C 
ATOM      4 C4   LIG A   1      -2.055   0.567  -0.246  1.00 20.00    -0.029 A 
ATOM      5 C5   LIG A   1      -1.891  -0.509  -1.173  1.00 20.00    +0.004 A 
ATOM      6 C6   LIG A   1      -0.676  -0.840  -1.830  1.00 20.00    -0.053 A 
ATOM      7 C7   LIG A   1      -0.587  -1.912  -2.718  1.00 20.00    -0.062 A 
ATOM      8 C8   LIG A   1      -1.712  -2.678  -2.974  1.00 20.00    -0.060 A 
ATOM      9 C9   LIG A   1      -2.914  -2.359  -2.343  1.00 20.00    -0.036 A 
ATOM     10 C10  LIG A   1      -3.025  -1.295  -1.457  1.00 20.00    +0.071 A 
ATOM     11 N11  LIG A   1      -4.225  -1.074  -0.912  1.00 20.00    -0.248 NA
ATOM     12 C12  LIG A   1      -4.387  -0.057  -0.058  1.00 20.00    +0.071 A 
ATOM     13 C13  LIG A   1      -5.659   0.131   0.467  1.00 20.00    -0.036 A 
ATOM     14 C14  LIG A   1      -5.946   1.155   1.369  1.00 20.00    -0.060 A 
ATOM     15 C15  LIG A   1      -4.936   2.017   1.759  1.00 20.00    -0.062 A 
ATOM     16 C16  LIG A   1      -3.651   1.847   1.244  1.00 20.00    -0.053 A 
ATOM     17 C17  LIG A   1      -3.342   0.809   0.324  1.00 20.00    +0.004 A 
ATOM     18 C18  LIG A   1       1.486   1.380   1.246  1.00 20.00    +0.087 C 
ATOM     19 N19  LIG A   1       1.451   2.847   1.446  1.00 20.00    -0.320 NA
ATOM     20 C20  LIG A   1       2.288   1.052  -0.037  1.00 20.00    +0.240 C 
ATOM     21 O21  LIG A   1       2.315   1.847  -0.982  1.00 20.00    -0.273 OA
ATOM     22 N22  LIG A   1       2.952  -0.152  -0.099  1.00 20.00    -0.328 NA
ATOM     23 C23  LIG A   1       2.978  -1.220   0.882  1.00 20.00    +0.022 C 
ATOM     24 C24  LIG A   1       3.174  -2.463   0.033  1.00 20.00    -0.033 C 
ATOM     25 C25  LIG A   1       4.103  -1.983  -1.075  1.00 20.00    -0.020 C 
ATOM     26 C26  LIG A   1       3.707  -0.517  -1.304  1.00 20.00    +0.129 C 
ATOM     27 C27  LIG A   1       4.978   0.304  -1.538  1.00 20.00    +0.326 C 
ATOM     28 O28  LIG A   1       5.683   0.242  -2.535  1.00 20.00    -0.250 OA
ATOM     29 O29  LIG A   1       5.356   1.077  -0.497  1.00 20.00    -0.480 OA
ATOM     30 N30  LIG A   1       3.194   1.333   0.289  1.00 20.00    -0.287 NA
ATOM     31 C31  LIG A   1       3.383   0.052   0.225  1.00 20.00    +0.110 C 
ATOM     32 N32  LIG A   1       4.594  -0.403  -0.201  1.00 20.00    -0.386 NA
ATOM     33 C33  LIG A   1       2.287  -0.931   0.632  1.00 20.00    +0.075 C 
ATOM     34 N34  LIG A   1       1.029  -0.473   0.086  1.00 20.00    -0.348 NA
ATOM     35 C35  LIG A   1      -0.172  -0.985   0.526  1.00 20.00    +0.237 C 
ATOM     36 O36  LIG A   1      -0.264  -1.748   1.483  1.00 20.00    -0.273 OA
ATOM     37 C37  LIG A   1      -1.370  -0.560  -0.341  1.00 20.00    +0.087 C 
ATOM     38 C38  LIG A   1      -2.695  -0.511   0.415  1.00 20.00    -0.027 C 
ATOM     39 C39  LIG A   1      -3.311   0.832   0.046  1.00 20.00    -0.039 C 
ATOM     40 C40  LIG A   1      -2.530   1.280  -1.173  1.00 20.00    -0.004 C 
ATOM     41 N41  LIG A   1      -1.168   0.806  -0.904  1.00 20.00    -0.306 NA
ATOM     42 H42  LIG A   1      -1.499   0.207   2.613  1.00 20.00    +0.023 H 
ATOM     43 H43  LIG A   1       0.103   0.331   3.331  1.00 20.00    +0.023 H 
ATOM     44 H44  LIG A   1      -0.789   1.804   2.914  1.00 20.00    +0.023 H 
ATOM     45 H45  LIG A   1       0.178  -0.303   0.923  1.00 20.00    +0.032 H 
ATOM     46 H46  LIG A   1      -1.163   2.416   0.479  1.00 20.00    +0.032 H 
ATOM     47 H47  LIG A   1      -0.296   1.646  -0.780  1.00 20.00    +0.032 H 
ATOM     48 H48  LIG A   1       0.225  -0.256  -1.668  1.00 20.00    +0.063 H 
ATOM     49 H49  LIG A   1       0.354  -2.138  -3.211  1.00 20.00    +0.062 H 
ATOM     50 H50  LIG A   1      -1.666  -3.514  -3.665  1.00 20.00    +0.062 H 
ATOM     51 H51  LIG A   1      -3.798  -2.958  -2.551  1.00 20.00    +0.065 H 
ATOM     52 H52  LIG A   1      -6.455  -0.546   0.162  1.00 20.00    +0.065 H 
ATOM     53 H53  LIG A   1      -6.954   1.271   1.758  1.00 20.00    +0.062 H 
ATOM     54 H54  LIG A   1      -5.141   2.820   2.462  1.00 20.00    +0.062 H 
ATOM     55 H55  LIG A   1      -2.890   2.544   1.582  1.00 20.00    +0.063 H 
ATOM     56 H56  LIG A   1       2.037   0.968   2.099  1.00 20.00    +0.057 H 
ATOM     57 H57  LIG A   1       2.414   3.169   1.562  1.00 20.00    +0.119 HD
ATOM     58 H58  LIG A   1       1.175   3.266   0.551  1.00 20.00    +0.119 HD
ATOM     59 H59  LIG A   1       2.072  -1.268   1.488  1.00 20.00    +0.049 H 
ATOM     60 H60  LIG A   1       3.837  -1.047   1.538  1.00 20.00    +0.049 H 
ATOM     61 H61  LIG A   1       3.586  -3.302   0.600  1.00 20.00    +0.029 H 
ATOM     62 H62  LIG A   1       2.216  -2.777  -0.400  1.00 20.00    +0.029 H 
ATOM     63 H63  LIG A   1       5.145  -2.071  -0.744  1.00 20.00    +0.029 H 
ATOM     64 H64  LIG A   1       3.997  -2.581  -1.986  1.00 20.00    +0.029 H 
ATOM     65 H65  LIG A   1       3.046  -0.394  -2.169  1.00 20.00    +0.065 H 
ATOM     66 H66  LIG A   1       6.154   1.539  -0.826  1.00 20.00    +0.296 HD
ATOM     67 H67  LIG A   1       2.238   1.504   0.626  1.00 20.00    +0.189 HD
ATOM     68 H68  LIG A   1       5.294   0.332  -0.206  1.00 20.00    +0.157 HD
ATOM     69 H69  LIG A   1       4.926  -1.278   0.188  1.00 20.00    +0.157 HD
ATOM     70 H70  LIG A   1       2.498  -1.929   0.236  1.00 20.00    +0.058 H 
ATOM     71 H71  LIG A   1       2.227  -0.977   1.723  1.00 20.00    +0.058 H 
ATOM     72 H72  LIG A   1       1.019  -0.010  -0.821  1.00 20.00    +0.163 HD
ATOM     73 H73  LIG A   1      -1.435  -1.276  -1.170  1.00 20.00    +0.057 H 
ATOM     74 H74  LIG A   1      -3.346  -1.327   0.080  1.00 20.00    +0.029 H 
ATOM     75 H75  LIG A   1      -2.587  -0.594   1.501  1.00 20.00    +0.029 H 
ATOM     76 H76  LIG A   1      -3.168   1.542   0.870  1.00 20.00    +0.028 H 
ATOM     77 H77  LIG A   1      -4.384   0.754  -0.151  1.00 20.00    +0.028 H 
ATOM     78 H78  LIG A   1      -2.916   0.811  -2.086  1.00 20.00    +0.043 H 
ATOM     79 H79  LIG A   1      -2.559   2.365  -1.307  1.00 20.00    +0.043 H 
ATOM     80 H80  LIG A   1      -0.783   1.390  -0.157  1.00 20.00    +0.123 HD
ENDROOT
TORSDOF 0
