MODEL 1
REMARK VINA RESULT:   -11.636      0.000      0.000
REMARK INTER + INTRA:         -11.636
REMARK INTER:                 -11.636
REMARK INTRA:                   0.000
REMARK UNBOUND:                 0.000
ROOT
ATOM      1 C1   LIG A   1      17.235  11.760   4.997  1.00 20.00    -0.060 C 
ATOM      2 C2   LIG A   1      17.607  13.252   4.940  1.00 20.00    -0.016 C 
ATOM      3 C3   LIG A   1      18.021  13.736   6.351  1.00 20.00    -0.023 C 
ATOM      4 C4   LIG A   1      17.741  15.205   6.634  1.00 20.00    -0.046 C 
ATOM      5 C5   LIG A   1      18.152  15.897   7.724  1.00 20.00    -0.059 C 
ATOM      6 C6   LIG A   1      19.498  15.673   8.237  1.00 20.00    -0.054 C 
ATOM      7 C7   LIG A   1      20.420  16.649   8.428  1.00 20.00    +0.009 C 
ATOM      8 C8   LIG A   1      20.045  18.033   8.556  1.00 20.00    +0.131 A 
ATOM      9 C9   LIG A   1      19.464  18.923   7.661  1.00 20.00    -0.015 A 
ATOM     10 C10  LIG A   1      19.378  20.188   8.292  1.00 20.00    -0.015 A 
ATOM     11 C11  LIG A   1      19.925  20.036   9.546  1.00 20.00    +0.134 A 
ATOM     12 C12  LIG A   1      20.167  20.925  10.679  1.00 20.00    +0.017 A 
ATOM     13 C13  LIG A   1      19.880  22.292  10.593  1.00 20.00    -0.049 A 
ATOM     14 C14  LIG A   1      20.119  23.152  11.676  1.00 20.00    -0.038 A 
ATOM     15 C15  LIG A   1      20.677  22.681  12.867  1.00 20.00    +0.034 A 
ATOM     16 N16  LIG A   1      20.873  23.474  14.006  1.00 20.00    -0.385 NA
ATOM     17 C17  LIG A   1      21.014  24.922  13.853  1.00 20.00    +0.022 C 
ATOM     18 C18  LIG A   1      21.253  25.581  15.211  1.00 20.00    +0.022 C 
ATOM     19 C19  LIG A   1      22.653  25.297  15.705  1.00 20.00    +0.092 C 
ATOM     20 N20  LIG A   1      23.646  26.081  15.444  1.00 20.00    -0.289 NA
ATOM     21 N21  LIG A   1      22.891  24.176  16.440  1.00 20.00    -0.388 NA
ATOM     22 C22  LIG A   1      20.920  21.306  12.964  1.00 20.00    -0.038 A 
ATOM     23 C23  LIG A   1      20.684  20.443  11.887  1.00 20.00    -0.049 A 
ATOM     24 O24  LIG A   1      20.327  18.744   9.701  1.00 20.00    -0.456 OA
ATOM     25 C25  LIG A   1      21.892  16.246   8.384  1.00 20.00    +0.085 C 
ATOM     26 C26  LIG A   1      22.627  16.841   9.579  1.00 20.00    +0.311 C 
ATOM     27 O27  LIG A   1      22.497  16.486  10.742  1.00 20.00    -0.252 OA
ATOM     28 O28  LIG A   1      23.461  17.853   9.275  1.00 20.00    -0.481 OA
ATOM     29 C29  LIG A   1      22.516  16.622   7.009  1.00 20.00    -0.034 C 
ATOM     30 C30  LIG A   1      21.969  15.797   5.822  1.00 20.00    -0.034 C 
ATOM     31 C31  LIG A   1      20.928  16.501   4.906  1.00 20.00    +0.025 C 
ATOM     32 N32  LIG A   1      19.719  15.689   4.650  1.00 20.00    -0.318 NA
ATOM     33 C33  LIG A   1      18.489  16.336   4.620  1.00 20.00    +0.007 C 
ATOM     34 C34  LIG A   1      17.491  16.065   5.479  1.00 20.00    -0.043 C 
ATOM     35 C35  LIG A   1      19.904  14.398   4.140  1.00 20.00    +0.243 C 
ATOM     36 O36  LIG A   1      21.034  13.978   3.854  1.00 20.00    -0.273 OA
ATOM     37 C37  LIG A   1      18.688  13.473   3.849  1.00 20.00    +0.088 C 
ATOM     38 N38  LIG A   1      18.078  13.810   2.539  1.00 20.00    -0.320 NA
ATOM     39 N39  LIG A   1      20.397  19.753  11.935  1.00 20.00    -0.287 NA
ATOM     40 C40  LIG A   1      21.132  20.527  11.201  1.00 20.00    +0.110 C 
ATOM     41 N41  LIG A   1      21.296  21.821  11.588  1.00 20.00    -0.386 NA
ATOM     42 C42  LIG A   1      21.817  20.003   9.939  1.00 20.00    +0.075 C 
ATOM     43 N43  LIG A   1      20.867  19.209   9.194  1.00 20.00    -0.348 NA
ATOM     44 C44  LIG A   1      21.275  18.313   8.231  1.00 20.00    +0.237 C 
ATOM     45 O45  LIG A   1      22.451  18.030   8.033  1.00 20.00    -0.273 OA
ATOM     46 C46  LIG A   1      20.117  17.761   7.384  1.00 20.00    +0.087 C 
ATOM     47 C47  LIG A   1      20.358  16.353   6.853  1.00 20.00    -0.027 C 
ATOM     48 C48  LIG A   1      19.032  15.626   7.036  1.00 20.00    -0.039 C 
ATOM     49 C49  LIG A   1      18.045  16.713   7.421  1.00 20.00    -0.004 C 
ATOM     50 N50  LIG A   1      18.856  17.678   8.174  1.00 20.00    -0.306 NA
ATOM     51 H51  LIG A   1      18.083  11.153   5.335  1.00 20.00    +0.023 H 
ATOM     52 H52  LIG A   1      16.403  11.593   5.689  1.00 20.00    +0.023 H 
ATOM     53 H53  LIG A   1      16.922  11.395   4.012  1.00 20.00    +0.023 H 
ATOM     54 H54  LIG A   1      16.679  13.762   4.646  1.00 20.00    +0.032 H 
ATOM     55 H55  LIG A   1      17.439  13.176   7.097  1.00 20.00    +0.032 H 
ATOM     56 H56  LIG A   1      19.069  13.476   6.530  1.00 20.00    +0.032 H 
ATOM     57 H57  LIG A   1      17.801  16.921   7.831  1.00 20.00    +0.063 H 
ATOM     58 H58  LIG A   1      19.845  14.642   8.192  1.00 20.00    +0.063 H 
ATOM     59 H59  LIG A   1      19.140  18.684   6.659  1.00 20.00    +0.066 H 
ATOM     60 H60  LIG A   1      18.977  21.099   7.872  1.00 20.00    +0.066 H 
ATOM     61 H61  LIG A   1      19.460  22.715   9.684  1.00 20.00    +0.063 H 
ATOM     62 H62  LIG A   1      19.853  24.197  11.557  1.00 20.00    +0.064 H 
ATOM     63 H63  LIG A   1      21.623  23.084  14.580  1.00 20.00    +0.160 HD
ATOM     64 H64  LIG A   1      20.089  25.343  13.442  1.00 20.00    +0.049 H 
ATOM     65 H65  LIG A   1      21.838  25.153  13.166  1.00 20.00    +0.049 H 
ATOM     66 H66  LIG A   1      20.527  25.227  15.951  1.00 20.00    +0.037 H 
ATOM     67 H67  LIG A   1      21.133  26.666  15.118  1.00 20.00    +0.037 H 
ATOM     68 H68  LIG A   1      23.344  26.882  14.879  1.00 20.00    +0.189 HD
ATOM     69 H69  LIG A   1      23.797  24.217  16.900  1.00 20.00    +0.157 HD
ATOM     70 H70  LIG A   1      22.147  23.870  17.057  1.00 20.00    +0.157 HD
ATOM     71 H71  LIG A   1      21.302  20.884  13.892  1.00 20.00    +0.064 H 
ATOM     72 H72  LIG A   1      20.900  19.383  12.011  1.00 20.00    +0.063 H 
ATOM     73 H73  LIG A   1      22.009  15.158   8.503  1.00 20.00    +0.047 H 
ATOM     74 H74  LIG A   1      23.766  18.173  10.151  1.00 20.00    +0.296 HD
ATOM     75 H75  LIG A   1      22.427  17.697   6.807  1.00 20.00    +0.028 H 
ATOM     76 H76  LIG A   1      23.595  16.421   7.074  1.00 20.00    +0.028 H 
ATOM     77 H77  LIG A   1      21.595  14.836   6.195  1.00 20.00    +0.029 H 
ATOM     78 H78  LIG A   1      22.830  15.554   5.184  1.00 20.00    +0.029 H 
ATOM     79 H79  LIG A   1      20.625  17.459   5.338  1.00 20.00    +0.050 H 
ATOM     80 H80  LIG A   1      21.387  16.711   3.932  1.00 20.00    +0.050 H 
ATOM     81 H81  LIG A   1      18.404  17.152   3.907  1.00 20.00    +0.082 H 
ATOM     82 H82  LIG A   1      16.556  16.616   5.448  1.00 20.00    +0.064 H 
ATOM     83 H83  LIG A   1      19.164  12.494   3.689  1.00 20.00    +0.057 H 
ATOM     84 H84  LIG A   1      17.710  14.759   2.584  1.00 20.00    +0.119 HD
ATOM     85 H85  LIG A   1      18.823  13.828   1.840  1.00 20.00    +0.119 HD
ATOM     86 H86  LIG A   1      20.376  18.818  11.503  1.00 20.00    +0.189 HD
ATOM     87 H87  LIG A   1      20.998  21.968  12.548  1.00 20.00    +0.157 HD
ATOM     88 H88  LIG A   1      22.178  22.265  11.366  1.00 20.00    +0.157 HD
ATOM     89 H89  LIG A   1      22.148  20.834   9.309  1.00 20.00    +0.058 H 
ATOM     90 H90  LIG A   1      22.680  19.393  10.222  1.00 20.00    +0.058 H 
ATOM     91 H91  LIG A   1      19.890  19.493   9.168  1.00 20.00    +0.163 HD
ATOM     92 H92  LIG A   1      19.965  18.460   6.552  1.00 20.00    +0.057 H 
ATOM     93 H93  LIG A   1      20.633  16.388   5.793  1.00 20.00    +0.029 H 
ATOM     94 H94  LIG A   1      21.154  15.822   7.385  1.00 20.00    +0.029 H 
ATOM     95 H95  LIG A   1      19.124  14.891   7.845  1.00 20.00    +0.028 H 
ATOM     96 H96  LIG A   1      18.726  15.094   6.131  1.00 20.00    +0.028 H 
ATOM     97 H97  LIG A   1      17.624  17.194   6.532  1.00 20.00    +0.043 H 
ATOM     98 H98  LIG A   1      17.217  16.326   8.023  1.00 20.00    +0.043 H 
ATOM     99 H99  LIG A   1      19.087  17.248   9.074  1.00 20.00    +0.123 HD
ENDROOT
TORSDOF 0
                                                                                                      
ENDMDL
MODEL 2
REMARK VINA RESULT:   -11.515      1.813      9.914
REMARK INTER + INTRA:         -11.515
REMARK INTER:                 -11.515
REMARK INTRA:                   0.000
REMARK UNBOUND:                 0.000
ROOT
ATOM      1 C1   LIG A   1      21.918  25.277  13.146  1.00 20.00    -0.060 C 
ATOM      2 C2   LIG A   1      21.631  23.766  13.090  1.00 20.00    -0.016 C 
ATOM      3 C3   LIG A   1      21.251  23.366  11.643  1.00 20.00    -0.023 C 
ATOM      4 C4   LIG A   1      20.305  22.178  11.534  1.00 20.00    -0.046 C 
ATOM      5 C5   LIG A   1      19.957  21.544  10.388  1.00 20.00    -0.059 C 
ATOM      6 C6   LIG A   1      20.978  21.295   9.379  1.00 20.00    -0.054 C 
ATOM      7 C7   LIG A   1      21.270  20.075   8.863  1.00 20.00    +0.009 C 
ATOM      8 C8   LIG A   1      20.337  18.980   8.931  1.00 20.00    +0.131 A 
ATOM      9 C9   LIG A   1      19.817  18.270  10.006  1.00 20.00    -0.015 A 
ATOM     10 C10  LIG A   1      18.988  17.242   9.494  1.00 20.00    -0.015 A 
ATOM     11 C11  LIG A   1      19.041  17.346   8.122  1.00 20.00    +0.134 A 
ATOM     12 C12  LIG A   1      18.455  16.603   7.010  1.00 20.00    +0.017 A 
ATOM     13 C13  LIG A   1      17.681  15.460   7.239  1.00 20.00    -0.049 A 
ATOM     14 C14  LIG A   1      17.123  14.737   6.173  1.00 20.00    -0.038 A 
ATOM     15 C15  LIG A   1      17.341  15.118   4.845  1.00 20.00    +0.034 A 
ATOM     16 N16  LIG A   1      16.753  14.482   3.743  1.00 20.00    -0.385 NA
ATOM     17 C17  LIG A   1      16.327  13.088   3.866  1.00 20.00    +0.022 C 
ATOM     18 C18  LIG A   1      15.749  12.589   2.542  1.00 20.00    +0.022 C 
ATOM     19 C19  LIG A   1      16.848  12.372   1.527  1.00 20.00    +0.092 C 
ATOM     20 N20  LIG A   1      17.445  11.234   1.394  1.00 20.00    -0.289 NA
ATOM     21 N21  LIG A   1      17.238  13.403   0.729  1.00 20.00    -0.388 NA
ATOM     22 C22  LIG A   1      18.076  16.288   4.624  1.00 20.00    -0.038 A 
ATOM     23 C23  LIG A   1      18.637  17.012   5.684  1.00 20.00    -0.049 A 
ATOM     24 O24  LIG A   1      19.853  18.387   7.787  1.00 20.00    -0.456 OA
ATOM     25 C25  LIG A   1      22.677  19.862   8.310  1.00 20.00    +0.085 C 
ATOM     26 C26  LIG A   1      22.599  19.204   6.938  1.00 20.00    +0.311 C 
ATOM     27 O27  LIG A   1      22.207  19.743   5.912  1.00 20.00    -0.252 OA
ATOM     28 O28  LIG A   1      22.986  17.914   6.913  1.00 20.00    -0.481 OA
ATOM     29 C29  LIG A   1      23.549  19.081   9.335  1.00 20.00    -0.034 C 
ATOM     30 C30  LIG A   1      23.876  19.875  10.620  1.00 20.00    -0.034 C 
ATOM     31 C31  LIG A   1      23.059  19.510  11.891  1.00 20.00    +0.025 C 
ATOM     32 N32  LIG A   1      22.485  20.684  12.584  1.00 20.00    -0.318 NA
ATOM     33 C33  LIG A   1      21.205  20.571  13.115  1.00 20.00    +0.007 C 
ATOM     34 C34  LIG A   1      20.169  21.330  12.715  1.00 20.00    -0.043 C 
ATOM     35 C35  LIG A   1      23.362  21.714  12.945  1.00 20.00    +0.243 C 
ATOM     36 O36  LIG A   1      24.581  21.615  12.749  1.00 20.00    -0.273 OA
ATOM     37 C37  LIG A   1      22.842  22.988  13.669  1.00 20.00    +0.088 C 
ATOM     38 N38  LIG A   1      22.681  22.733  15.121  1.00 20.00    -0.320 NA
ATOM     39 N39  LIG A   1      18.666  17.759   5.736  1.00 20.00    -0.287 NA
ATOM     40 C40  LIG A   1      19.228  16.664   6.138  1.00 20.00    +0.110 C 
ATOM     41 N41  LIG A   1      18.685  15.478   5.751  1.00 20.00    -0.386 NA
ATOM     42 C42  LIG A   1      20.482  16.694   7.011  1.00 20.00    +0.075 C 
ATOM     43 N43  LIG A   1      20.297  17.680   8.050  1.00 20.00    -0.348 NA
ATOM     44 C44  LIG A   1      21.364  18.200   8.750  1.00 20.00    +0.237 C 
ATOM     45 O45  LIG A   1      22.533  17.971   8.458  1.00 20.00    -0.273 OA
ATOM     46 C46  LIG A   1      20.944  19.033   9.971  1.00 20.00    +0.087 C 
ATOM     47 C47  LIG A   1      21.924  20.145  10.326  1.00 20.00    -0.027 C 
ATOM     48 C48  LIG A   1      21.055  21.349  10.664  1.00 20.00    -0.039 C 
ATOM     49 C49  LIG A   1      19.642  20.800  10.730  1.00 20.00    -0.004 C 
ATOM     50 N50  LIG A   1      19.638  19.713   9.743  1.00 20.00    -0.306 NA
ATOM     51 H51  LIG A   1      22.749  25.547  12.484  1.00 20.00    +0.023 H 
ATOM     52 H52  LIG A   1      21.040  25.852  12.836  1.00 20.00    +0.023 H 
ATOM     53 H53  LIG A   1      22.174  25.591  14.164  1.00 20.00    +0.023 H 
ATOM     54 H54  LIG A   1      20.757  23.622  13.741  1.00 20.00    +0.032 H 
ATOM     55 H55  LIG A   1      20.724  24.208  11.175  1.00 20.00    +0.032 H 
ATOM     56 H56  LIG A   1      22.164  23.218  11.057  1.00 20.00    +0.032 H 
ATOM     57 H57  LIG A   1      19.201  20.764  10.456  1.00 20.00    +0.063 H 
ATOM     58 H58  LIG A   1      21.711  22.091   9.255  1.00 20.00    +0.063 H 
ATOM     59 H59  LIG A   1      20.018  18.471  11.048  1.00 20.00    +0.066 H 
ATOM     60 H60  LIG A   1      18.433  16.510  10.062  1.00 20.00    +0.066 H 
ATOM     61 H61  LIG A   1      17.494  15.109   8.250  1.00 20.00    +0.063 H 
ATOM     62 H62  LIG A   1      16.513  13.873   6.415  1.00 20.00    +0.064 H 
ATOM     63 H63  LIG A   1      17.325  14.626   2.909  1.00 20.00    +0.160 HD
ATOM     64 H64  LIG A   1      15.536  13.008   4.621  1.00 20.00    +0.049 H 
ATOM     65 H65  LIG A   1      17.171  12.459   4.176  1.00 20.00    +0.049 H 
ATOM     66 H66  LIG A   1      15.019  13.299   2.141  1.00 20.00    +0.037 H 
ATOM     67 H67  LIG A   1      15.235  11.635   2.704  1.00 20.00    +0.037 H 
ATOM     68 H68  LIG A   1      17.072  10.542   2.053  1.00 20.00    +0.189 HD
ATOM     69 H69  LIG A   1      17.804  13.078  -0.051  1.00 20.00    +0.157 HD
ATOM     70 H70  LIG A   1      16.517  14.060   0.449  1.00 20.00    +0.157 HD
ATOM     71 H71  LIG A   1      18.224  16.655   3.610  1.00 20.00    +0.064 H 
ATOM     72 H72  LIG A   1      19.209  17.910   5.456  1.00 20.00    +0.063 H 
ATOM     73 H73  LIG A   1      23.181  20.822   8.127  1.00 20.00    +0.047 H 
ATOM     74 H74  LIG A   1      22.782  17.629   5.997  1.00 20.00    +0.296 HD
ATOM     75 H75  LIG A   1      23.105  18.109   9.585  1.00 20.00    +0.028 H 
ATOM     76 H76  LIG A   1      24.506  18.852   8.843  1.00 20.00    +0.028 H 
ATOM     77 H77  LIG A   1      23.824  20.949  10.401  1.00 20.00    +0.029 H 
ATOM     78 H78  LIG A   1      24.929  19.671  10.859  1.00 20.00    +0.029 H 
ATOM     79 H79  LIG A   1      22.250  18.818  11.639  1.00 20.00    +0.050 H 
ATOM     80 H80  LIG A   1      23.714  19.002  12.609  1.00 20.00    +0.050 H 
ATOM     81 H81  LIG A   1      21.060  19.760  13.825  1.00 20.00    +0.082 H 
ATOM     82 H82  LIG A   1      19.175  21.188  13.128  1.00 20.00    +0.064 H 
ATOM     83 H83  LIG A   1      23.703  23.671  13.602  1.00 20.00    +0.057 H 
ATOM     84 H84  LIG A   1      21.965  22.021  15.252  1.00 20.00    +0.119 HD
ATOM     85 H85  LIG A   1      23.551  22.328  15.469  1.00 20.00    +0.119 HD
ATOM     86 H86  LIG A   1      19.195  18.556   6.115  1.00 20.00    +0.189 HD
ATOM     87 H87  LIG A   1      18.020  15.596   4.993  1.00 20.00    +0.157 HD
ATOM     88 H88  LIG A   1      19.317  14.698   5.618  1.00 20.00    +0.157 HD
ATOM     89 H89  LIG A   1      20.647  15.719   7.481  1.00 20.00    +0.058 H 
ATOM     90 H90  LIG A   1      21.347  16.953   6.394  1.00 20.00    +0.058 H 
ATOM     91 H91  LIG A   1      19.377  17.800   8.469  1.00 20.00    +0.163 HD
ATOM     92 H92  LIG A   1      20.836  18.338  10.813  1.00 20.00    +0.057 H 
ATOM     93 H93  LIG A   1      22.531  19.855  11.191  1.00 20.00    +0.029 H 
ATOM     94 H94  LIG A   1      22.609  20.393   9.509  1.00 20.00    +0.029 H 
ATOM     95 H95  LIG A   1      21.137  22.097   9.866  1.00 20.00    +0.028 H 
ATOM     96 H96  LIG A   1      21.356  21.824  11.602  1.00 20.00    +0.028 H 
ATOM     97 H97  LIG A   1      19.422  20.400  11.726  1.00 20.00    +0.043 H 
ATOM     98 H98  LIG A   1      18.891  21.560  10.495  1.00 20.00    +0.043 H 
ATOM     99 H99  LIG A   1      19.674  20.142   8.814  1.00 20.00    +0.123 HD
ENDROOT
TORSDOF 0
                                                                                                      
ENDMDL
MODEL 3
REMARK VINA RESULT:   -11.370      2.932      5.460
REMARK INTER + INTRA:         -11.370
REMARK INTER:                 -11.370
REMARK INTRA:                   0.000
REMARK UNBOUND:                 0.000
ROOT
ATOM      1 C1   LIG A   1      11.877  11.207   1.669  1.00 20.00    -0.060 C 
ATOM      2 C2   LIG A   1      13.216  11.966   1.655  1.00 20.00    -0.016 C 
ATOM      3 C3   LIG A   1      13.498  12.543   3.063  1.00 20.00    -0.023 C 
ATOM      4 C4   LIG A   1      14.320  13.824   3.079  1.00 20.00    -0.046 C 
ATOM      5 C5   LIG A   1      14.828  14.428   4.181  1.00 20.00    -0.059 C 
ATOM      6 C6   LIG A   1      15.408  13.605   5.234  1.00 20.00    -0.054 C 
ATOM      7 C7   LIG A   1      16.666  13.752   5.720  1.00 20.00    +0.009 C 
ATOM      8 C8   LIG A   1      17.402  14.979   5.563  1.00 20.00    +0.131 A 
ATOM      9 C9   LIG A   1      17.889  15.631   4.437  1.00 20.00    -0.015 A 
ATOM     10 C10  LIG A   1      18.605  16.775   4.866  1.00 20.00    -0.015 A 
ATOM     11 C11  LIG A   1      18.547  16.778   6.241  1.00 20.00    +0.134 A 
ATOM     12 C12  LIG A   1      19.080  17.639   7.293  1.00 20.00    +0.017 A 
ATOM     13 C13  LIG A   1      19.911  18.722   6.982  1.00 20.00    -0.049 A 
ATOM     14 C14  LIG A   1      20.433  19.547   7.990  1.00 20.00    -0.038 A 
ATOM     15 C15  LIG A   1      20.165  19.303   9.340  1.00 20.00    +0.034 A 
ATOM     16 N16  LIG A   1      20.596  20.130  10.385  1.00 20.00    -0.385 NA
ATOM     17 C17  LIG A   1      21.777  20.972  10.189  1.00 20.00    +0.022 C 
ATOM     18 C18  LIG A   1      22.087  21.760  11.461  1.00 20.00    +0.022 C 
ATOM     19 C19  LIG A   1      22.663  20.854  12.526  1.00 20.00    +0.092 C 
ATOM     20 N20  LIG A   1      23.934  20.662  12.649  1.00 20.00    -0.289 NA
ATOM     21 N21  LIG A   1      21.825  20.206  13.380  1.00 20.00    -0.388 NA
ATOM     22 C22  LIG A   1      19.297  18.247   9.642  1.00 20.00    -0.038 A 
ATOM     23 C23  LIG A   1      18.774  17.419   8.641  1.00 20.00    -0.049 A 
ATOM     24 O24  LIG A   1      17.828  15.699   6.657  1.00 20.00    -0.456 OA
ATOM     25 C25  LIG A   1      17.329  12.524   6.340  1.00 20.00    +0.085 C 
ATOM     26 C26  LIG A   1      17.950  12.894   7.682  1.00 20.00    +0.311 C 
ATOM     27 O27  LIG A   1      17.332  13.156   8.704  1.00 20.00    -0.252 OA
ATOM     28 O28  LIG A   1      19.296  12.942   7.681  1.00 20.00    -0.481 OA
ATOM     29 C29  LIG A   1      18.332  11.885   5.337  1.00 20.00    -0.034 C 
ATOM     30 C30  LIG A   1      17.663  11.242   4.100  1.00 20.00    -0.034 C 
ATOM     31 C31  LIG A   1      17.725  12.052   2.775  1.00 20.00    +0.025 C 
ATOM     32 N32  LIG A   1      16.417  12.175   2.095  1.00 20.00    -0.318 NA
ATOM     33 C33  LIG A   1      16.104  13.389   1.492  1.00 20.00    +0.007 C 
ATOM     34 C34  LIG A   1      15.060  14.150   1.862  1.00 20.00    -0.043 C 
ATOM     35 C35  LIG A   1      15.718  10.994   1.819  1.00 20.00    +0.243 C 
ATOM     36 O36  LIG A   1      16.206   9.886   2.076  1.00 20.00    -0.273 OA
ATOM     37 C37  LIG A   1      14.332  11.033   1.114  1.00 20.00    +0.088 C 
ATOM     38 N38  LIG A   1      14.497  11.176  -0.353  1.00 20.00    -0.320 NA
ATOM     39 N39  LIG A   1      18.075  17.150   8.618  1.00 20.00    -0.287 NA
ATOM     40 C40  LIG A   1      19.286  16.943   8.207  1.00 20.00    +0.110 C 
ATOM     41 N41  LIG A   1      20.241  17.860   8.521  1.00 20.00    -0.386 NA
ATOM     42 C42  LIG A   1      19.646  15.694   7.404  1.00 20.00    +0.075 C 
ATOM     43 N43  LIG A   1      18.635  15.488   6.393  1.00 20.00    -0.348 NA
ATOM     44 C44  LIG A   1      18.474  14.269   5.771  1.00 20.00    +0.237 C 
ATOM     45 O45  LIG A   1      19.071  13.256   6.117  1.00 20.00    -0.273 OA
ATOM     46 C46  LIG A   1      17.529  14.324   4.560  1.00 20.00    +0.087 C 
ATOM     47 C47  LIG A   1      16.786  13.019   4.298  1.00 20.00    -0.027 C 
ATOM     48 C48  LIG A   1      15.361  13.435   3.958  1.00 20.00    -0.039 C 
ATOM     49 C49  LIG A   1      15.426  14.942   3.796  1.00 20.00    -0.004 C 
ATOM     50 N50  LIG A   1      16.470  15.356   4.741  1.00 20.00    -0.306 NA
ATOM     51 H51  LIG A   1      11.900  10.377   2.384  1.00 20.00    +0.023 H 
ATOM     52 H52  LIG A   1      11.056  11.874   1.952  1.00 20.00    +0.023 H 
ATOM     53 H53  LIG A   1      11.645  10.801   0.678  1.00 20.00    +0.023 H 
ATOM     54 H54  LIG A   1      13.061  12.797   0.953  1.00 20.00    +0.032 H 
ATOM     55 H55  LIG A   1      12.539  12.802   3.533  1.00 20.00    +0.032 H 
ATOM     56 H56  LIG A   1      13.940  11.764   3.692  1.00 20.00    +0.032 H 
ATOM     57 H57  LIG A   1      15.323  15.388   4.045  1.00 20.00    +0.063 H 
ATOM     58 H58  LIG A   1      14.892  12.666   5.425  1.00 20.00    +0.063 H 
ATOM     59 H59  LIG A   1      17.746  15.311   3.415  1.00 20.00    +0.066 H 
ATOM     60 H60  LIG A   1      19.110  17.498   4.243  1.00 20.00    +0.066 H 
ATOM     61 H61  LIG A   1      20.165  18.948   5.950  1.00 20.00    +0.063 H 
ATOM     62 H62  LIG A   1      21.051  20.385   7.684  1.00 20.00    +0.064 H 
ATOM     63 H63  LIG A   1      20.658  19.596  11.253  1.00 20.00    +0.160 HD
ATOM     64 H64  LIG A   1      21.587  21.698   9.391  1.00 20.00    +0.049 H 
ATOM     65 H65  LIG A   1      22.639  20.355   9.903  1.00 20.00    +0.049 H 
ATOM     66 H66  LIG A   1      21.186  22.249  11.848  1.00 20.00    +0.037 H 
ATOM     67 H67  LIG A   1      22.822  22.541  11.238  1.00 20.00    +0.037 H 
ATOM     68 H68  LIG A   1      24.458  21.194  11.947  1.00 20.00    +0.189 HD
ATOM     69 H69  LIG A   1      22.328  19.823  14.177  1.00 20.00    +0.157 HD
ATOM     70 H70  LIG A   1      20.976  20.695  13.645  1.00 20.00    +0.157 HD
ATOM     71 H71  LIG A   1      19.014  18.053  10.675  1.00 20.00    +0.064 H 
ATOM     72 H72  LIG A   1      18.111  16.606   8.931  1.00 20.00    +0.063 H 
ATOM     73 H73  LIG A   1      16.585  11.752   6.585  1.00 20.00    +0.047 H 
ATOM     74 H74  LIG A   1      19.516  13.284   8.573  1.00 20.00    +0.296 HD
ATOM     75 H75  LIG A   1      19.105  12.600   5.028  1.00 20.00    +0.028 H 
ATOM     76 H76  LIG A   1      18.864  11.085   5.870  1.00 20.00    +0.028 H 
ATOM     77 H77  LIG A   1      16.634  10.961   4.355  1.00 20.00    +0.029 H 
ATOM     78 H78  LIG A   1      18.191  10.296   3.912  1.00 20.00    +0.029 H 
ATOM     79 H79  LIG A   1      18.124  13.053   2.957  1.00 20.00    +0.050 H 
ATOM     80 H80  LIG A   1      18.404  11.549   2.076  1.00 20.00    +0.050 H 
ATOM     81 H81  LIG A   1      16.813  13.740   0.747  1.00 20.00    +0.082 H 
ATOM     82 H82  LIG A   1      14.868  15.109   1.391  1.00 20.00    +0.064 H 
ATOM     83 H83  LIG A   1      13.964  10.005   1.252  1.00 20.00    +0.057 H 
ATOM     84 H84  LIG A   1      14.940  12.073  -0.547  1.00 20.00    +0.119 HD
ATOM     85 H85  LIG A   1      15.155  10.461  -0.668  1.00 20.00    +0.119 HD
ATOM     86 H86  LIG A   1      17.484  16.371   8.296  1.00 20.00    +0.189 HD
ATOM     87 H87  LIG A   1      19.928  18.498   9.247  1.00 20.00    +0.157 HD
ATOM     88 H88  LIG A   1      21.185  17.521   8.660  1.00 20.00    +0.157 HD
ATOM     89 H89  LIG A   1      20.614  15.820   6.910  1.00 20.00    +0.058 H 
ATOM     90 H90  LIG A   1      19.689  14.831   8.076  1.00 20.00    +0.058 H 
ATOM     91 H91  LIG A   1      18.219  16.293   5.929  1.00 20.00    +0.163 HD
ATOM     92 H92  LIG A   1      18.139  14.595   3.689  1.00 20.00    +0.057 H 
ATOM     93 H93  LIG A   1      17.241  12.484   3.457  1.00 20.00    +0.029 H 
ATOM     94 H94  LIG A   1      16.784  12.344   5.160  1.00 20.00    +0.029 H 
ATOM     95 H95  LIG A   1      14.692  13.168   4.785  1.00 20.00    +0.028 H 
ATOM     96 H96  LIG A   1      14.992  12.939   3.055  1.00 20.00    +0.028 H 
ATOM     97 H97  LIG A   1      15.717  15.216   2.776  1.00 20.00    +0.043 H 
ATOM     98 H98  LIG A   1      14.469  15.424   4.017  1.00 20.00    +0.043 H 
ATOM     99 H99  LIG A   1      16.091  15.242   5.686  1.00 20.00    +0.123 HD
ENDROOT
TORSDOF 0
                                                                                                      
ENDMDL
MODEL 4
REMARK VINA RESULT:   -11.227      2.840      4.911
REMARK INTER + INTRA:         -11.227
REMARK INTER:                 -11.227
REMARK INTRA:                   0.000
REMARK UNBOUND:                 0.000
ROOT
ATOM      1 C1   LIG A   1      19.942  16.435   4.819  1.00 20.00    -0.060 C 
ATOM      2 C2   LIG A   1      20.613  17.757   5.234  1.00 20.00    -0.016 C 
ATOM      3 C3   LIG A   1      19.977  18.269   6.549  1.00 20.00    -0.023 C 
ATOM      4 C4   LIG A   1      19.982  19.781   6.718  1.00 20.00    -0.046 C 
ATOM      5 C5   LIG A   1      19.633  20.456   7.840  1.00 20.00    -0.059 C 
ATOM      6 C6   LIG A   1      20.054  19.939   9.136  1.00 20.00    -0.054 C 
ATOM      7 C7   LIG A   1      20.757  20.647  10.054  1.00 20.00    +0.009 C 
ATOM      8 C8   LIG A   1      20.792  22.087  10.040  1.00 20.00    +0.131 A 
ATOM      9 C9   LIG A   1      21.308  22.993   9.121  1.00 20.00    -0.015 A 
ATOM     10 C10  LIG A   1      21.129  24.297   9.642  1.00 20.00    -0.015 A 
ATOM     11 C11  LIG A   1      20.524  24.147  10.870  1.00 20.00    +0.134 A 
ATOM     12 C12  LIG A   1      20.089  25.061  11.922  1.00 20.00    +0.017 A 
ATOM     13 C13  LIG A   1      20.330  26.436  11.823  1.00 20.00    -0.049 A 
ATOM     14 C14  LIG A   1      19.921  27.318  12.837  1.00 20.00    -0.038 A 
ATOM     15 C15  LIG A   1      19.285  26.852  13.991  1.00 20.00    +0.034 A 
ATOM     16 N16  LIG A   1      18.790  27.686  15.002  1.00 20.00    -0.385 NA
ATOM     17 C17  LIG A   1      19.372  29.017  15.178  1.00 20.00    +0.022 C 
ATOM     18 C18  LIG A   1      18.711  29.737  16.352  1.00 20.00    +0.022 C 
ATOM     19 C19  LIG A   1      19.164  29.146  17.668  1.00 20.00    +0.092 C 
ATOM     20 N20  LIG A   1      20.191  29.601  18.307  1.00 20.00    -0.289 NA
ATOM     21 N21  LIG A   1      18.486  28.093  18.200  1.00 20.00    -0.388 NA
ATOM     22 C22  LIG A   1      19.006  25.482  14.063  1.00 20.00    -0.038 A 
ATOM     23 C23  LIG A   1      19.411  24.598  13.056  1.00 20.00    -0.049 A 
ATOM     24 O24  LIG A   1      20.325  22.821  11.107  1.00 20.00    -0.456 OA
ATOM     25 C25  LIG A   1      21.616  19.862  11.042  1.00 20.00    +0.085 C 
ATOM     26 C26  LIG A   1      21.371  20.369  12.458  1.00 20.00    +0.311 C 
ATOM     27 O27  LIG A   1      20.349  20.196  13.109  1.00 20.00    -0.252 OA
ATOM     28 O28  LIG A   1      22.388  21.080  12.982  1.00 20.00    -0.481 OA
ATOM     29 C29  LIG A   1      23.110  19.899  10.610  1.00 20.00    -0.034 C 
ATOM     30 C30  LIG A   1      23.409  19.122   9.307  1.00 20.00    -0.034 C 
ATOM     31 C31  LIG A   1      23.600  19.971   8.019  1.00 20.00    +0.025 C 
ATOM     32 N32  LIG A   1      22.806  19.489   6.868  1.00 20.00    -0.318 NA
ATOM     33 C33  LIG A   1      22.218  20.435   6.036  1.00 20.00    +0.007 C 
ATOM     34 C34  LIG A   1      20.889  20.540   5.860  1.00 20.00    -0.043 C 
ATOM     35 C35  LIG A   1      22.953  18.147   6.498  1.00 20.00    +0.243 C 
ATOM     36 O36  LIG A   1      23.767  17.410   7.072  1.00 20.00    -0.273 OA
ATOM     37 C37  LIG A   1      22.149  17.556   5.305  1.00 20.00    +0.088 C 
ATOM     38 N38  LIG A   1      22.804  17.893   4.018  1.00 20.00    -0.320 NA
ATOM     39 N39  LIG A   1      19.012  24.020  12.795  1.00 20.00    -0.287 NA
ATOM     40 C40  LIG A   1      20.216  24.481  12.926  1.00 20.00    +0.110 C 
ATOM     41 N41  LIG A   1      20.380  25.718  13.467  1.00 20.00    -0.386 NA
ATOM     42 C42  LIG A   1      21.429  23.653  12.504  1.00 20.00    +0.075 C 
ATOM     43 N43  LIG A   1      21.159  23.064  11.213  1.00 20.00    -0.348 NA
ATOM     44 C44  LIG A   1      21.881  21.988  10.745  1.00 20.00    +0.237 C 
ATOM     45 O45  LIG A   1      22.696  21.379  11.430  1.00 20.00    -0.273 OA
ATOM     46 C46  LIG A   1      21.617  21.675   9.264  1.00 20.00    +0.087 C 
ATOM     47 C47  LIG A   1      21.785  20.202   8.906  1.00 20.00    -0.027 C 
ATOM     48 C48  LIG A   1      20.619  19.884   7.979  1.00 20.00    -0.039 C 
ATOM     49 C49  LIG A   1      20.000  21.232   7.657  1.00 20.00    -0.004 C 
ATOM     50 N50  LIG A   1      20.222  22.022   8.874  1.00 20.00    -0.306 NA
ATOM     51 H51  LIG A   1      20.074  15.666   5.587  1.00 20.00    +0.023 H 
ATOM     52 H52  LIG A   1      18.867  16.577   4.663  1.00 20.00    +0.023 H 
ATOM     53 H53  LIG A   1      20.363  16.059   3.880  1.00 20.00    +0.023 H 
ATOM     54 H54  LIG A   1      20.372  18.460   4.424  1.00 20.00    +0.032 H 
ATOM     55 H55  LIG A   1      18.919  17.973   6.564  1.00 20.00    +0.032 H 
ATOM     56 H56  LIG A   1      20.443  17.760   7.399  1.00 20.00    +0.032 H 
ATOM     57 H57  LIG A   1      19.602  21.542   7.784  1.00 20.00    +0.063 H 
ATOM     58 H58  LIG A   1      20.035  18.855   9.231  1.00 20.00    +0.063 H 
ATOM     59 H59  LIG A   1      21.768  22.737   8.178  1.00 20.00    +0.066 H 
ATOM     60 H60  LIG A   1      21.419  25.229   9.179  1.00 20.00    +0.066 H 
ATOM     61 H61  LIG A   1      20.835  26.850  10.956  1.00 20.00    +0.063 H 
ATOM     62 H62  LIG A   1      20.114  28.375  12.692  1.00 20.00    +0.064 H 
ATOM     63 H63  LIG A   1      18.746  27.178  15.887  1.00 20.00    +0.160 HD
ATOM     64 H64  LIG A   1      19.196  29.621  14.281  1.00 20.00    +0.049 H 
ATOM     65 H65  LIG A   1      20.455  28.939  15.339  1.00 20.00    +0.049 H 
ATOM     66 H66  LIG A   1      17.619  29.677  16.284  1.00 20.00    +0.037 H 
ATOM     67 H67  LIG A   1      18.988  30.797  16.336  1.00 20.00    +0.037 H 
ATOM     68 H68  LIG A   1      20.622  30.384  17.805  1.00 20.00    +0.189 HD
ATOM     69 H69  LIG A   1      18.737  27.941  19.174  1.00 20.00    +0.157 HD
ATOM     70 H70  LIG A   1      17.484  28.069  18.041  1.00 20.00    +0.157 HD
ATOM     71 H71  LIG A   1      18.462  25.081  14.916  1.00 20.00    +0.064 H 
ATOM     72 H72  LIG A   1      19.178  23.540  13.166  1.00 20.00    +0.063 H 
ATOM     73 H73  LIG A   1      21.318  18.804  11.074  1.00 20.00    +0.047 H 
ATOM     74 H74  LIG A   1      22.029  21.404  13.835  1.00 20.00    +0.296 HD
ATOM     75 H75  LIG A   1      23.485  20.928  10.540  1.00 20.00    +0.028 H 
ATOM     76 H76  LIG A   1      23.695  19.425  11.411  1.00 20.00    +0.028 H 
ATOM     77 H77  LIG A   1      22.647  18.346   9.170  1.00 20.00    +0.029 H 
ATOM     78 H78  LIG A   1      24.355  18.586   9.469  1.00 20.00    +0.029 H 
ATOM     79 H79  LIG A   1      23.347  21.018   8.210  1.00 20.00    +0.050 H 
ATOM     80 H80  LIG A   1      24.655  19.938   7.718  1.00 20.00    +0.050 H 
ATOM     81 H81  LIG A   1      22.897  21.158   5.592  1.00 20.00    +0.082 H 
ATOM     82 H82  LIG A   1      20.464  21.315   5.229  1.00 20.00    +0.064 H 
ATOM     83 H83  LIG A   1      22.310  16.473   5.422  1.00 20.00    +0.057 H 
ATOM     84 H84  LIG A   1      22.788  18.904   3.897  1.00 20.00    +0.119 HD
ATOM     85 H85  LIG A   1      23.789  17.631   4.086  1.00 20.00    +0.119 HD
ATOM     86 H86  LIG A   1      19.066  23.083  12.373  1.00 20.00    +0.189 HD
ATOM     87 H87  LIG A   1      19.532  26.048  13.919  1.00 20.00    +0.157 HD
ATOM     88 H88  LIG A   1      21.218  25.882  14.011  1.00 20.00    +0.157 HD
ATOM     89 H89  LIG A   1      22.317  24.287  12.420  1.00 20.00    +0.058 H 
ATOM     90 H90  LIG A   1      21.610  22.870  13.247  1.00 20.00    +0.058 H 
ATOM     91 H91  LIG A   1      20.633  23.594  10.521  1.00 20.00    +0.163 HD
ATOM     92 H92  LIG A   1      22.309  22.290   8.676  1.00 20.00    +0.057 H 
ATOM     93 H93  LIG A   1      22.739  20.043   8.391  1.00 20.00    +0.029 H 
ATOM     94 H94  LIG A   1      21.762  19.541   9.778  1.00 20.00    +0.029 H 
ATOM     95 H95  LIG A   1      19.896  19.247   8.503  1.00 20.00    +0.028 H 
ATOM     96 H96  LIG A   1      20.942  19.354   7.078  1.00 20.00    +0.028 H 
ATOM     97 H97  LIG A   1      20.506  21.704   6.809  1.00 20.00    +0.043 H 
ATOM     98 H98  LIG A   1      18.935  21.151   7.418  1.00 20.00    +0.043 H 
ATOM     99 H99  LIG A   1      19.600  21.651   9.599  1.00 20.00    +0.123 HD
ENDROOT
TORSDOF 0
                                                                                                      
ENDMDL
MODEL 5
REMARK VINA RESULT:   -10.921      1.206      1.373
REMARK INTER + INTRA:         -10.921
REMARK INTER:                 -10.921
REMARK INTRA:                   0.000
REMARK UNBOUND:                 0.000
ROOT
ATOM      1 C1   LIG A   1      15.932  12.361   4.451  1.00 20.00    -0.060 C 
ATOM      2 C2   LIG A   1      16.997  13.472   4.448  1.00 20.00    -0.016 C 
ATOM      3 C3   LIG A   1      16.962  14.224   5.801  1.00 20.00    -0.023 C 
ATOM      4 C4   LIG A   1      17.384  15.685   5.734  1.00 20.00    -0.046 C 
ATOM      5 C5   LIG A   1      17.589  16.502   6.795  1.00 20.00    -0.059 C 
ATOM      6 C6   LIG A   1      18.270  15.976   7.972  1.00 20.00    -0.054 C 
ATOM      7 C7   LIG A   1      19.380  16.523   8.526  1.00 20.00    +0.009 C 
ATOM      8 C8   LIG A   1      19.752  17.893   8.288  1.00 20.00    +0.131 A 
ATOM      9 C9   LIG A   1      20.144  18.560   7.134  1.00 20.00    -0.015 A 
ATOM     10 C10  LIG A   1      20.462  19.895   7.484  1.00 20.00    -0.015 A 
ATOM     11 C11  LIG A   1      20.269  19.998   8.843  1.00 20.00    +0.134 A 
ATOM     12 C12  LIG A   1      20.430  21.063   9.828  1.00 20.00    +0.017 A 
ATOM     13 C13  LIG A   1      20.948  22.310   9.460  1.00 20.00    -0.049 A 
ATOM     14 C14  LIG A   1      21.113  23.334  10.405  1.00 20.00    -0.038 A 
ATOM     15 C15  LIG A   1      20.792  23.138  11.751  1.00 20.00    +0.034 A 
ATOM     16 N16  LIG A   1      20.866  24.141  12.727  1.00 20.00    -0.385 NA
ATOM     17 C17  LIG A   1      21.775  25.270  12.524  1.00 20.00    +0.022 C 
ATOM     18 C18  LIG A   1      21.722  26.219  13.720  1.00 20.00    +0.022 C 
ATOM     19 C19  LIG A   1      22.420  25.614  14.916  1.00 20.00    +0.092 C 
ATOM     20 N20  LIG A   1      23.676  25.811  15.150  1.00 20.00    -0.289 NA
ATOM     21 N21  LIG A   1      21.719  24.826  15.775  1.00 20.00    -0.388 NA
ATOM     22 C22  LIG A   1      20.231  21.905  12.105  1.00 20.00    -0.038 A 
ATOM     23 C23  LIG A   1      20.065  20.879  11.167  1.00 20.00    -0.049 A 
ATOM     24 O24  LIG A   1      19.846  18.796   9.323  1.00 20.00    -0.456 OA
ATOM     25 C25  LIG A   1      20.298  15.599   9.323  1.00 20.00    +0.085 C 
ATOM     26 C26  LIG A   1      20.652  16.246  10.656  1.00 20.00    +0.311 C 
ATOM     27 O27  LIG A   1      19.886  16.403  11.597  1.00 20.00    -0.252 OA
ATOM     28 O28  LIG A   1      21.923  16.683  10.746  1.00 20.00    -0.481 OA
ATOM     29 C29  LIG A   1      21.535  15.195   8.470  1.00 20.00    -0.034 C 
ATOM     30 C30  LIG A   1      21.201  14.283   7.267  1.00 20.00    -0.034 C 
ATOM     31 C31  LIG A   1      21.163  14.960   5.869  1.00 20.00    +0.025 C 
ATOM     32 N32  LIG A   1      19.948  14.639   5.088  1.00 20.00    -0.318 NA
ATOM     33 C33  LIG A   1      19.367  15.653   4.334  1.00 20.00    +0.007 C 
ATOM     34 C34  LIG A   1      18.119  16.107   4.544  1.00 20.00    -0.043 C 
ATOM     35 C35  LIG A   1      19.641  13.287   4.895  1.00 20.00    +0.243 C 
ATOM     36 O36  LIG A   1      20.395  12.395   5.307  1.00 20.00    -0.273 OA
ATOM     37 C37  LIG A   1      18.378  12.862   4.094  1.00 20.00    +0.088 C 
ATOM     38 N38  LIG A   1      18.642  12.921   2.635  1.00 20.00    -0.320 NA
ATOM     39 N39  LIG A   1      19.477  20.418  11.124  1.00 20.00    -0.287 NA
ATOM     40 C40  LIG A   1      20.732  20.538  10.825  1.00 20.00    +0.110 C 
ATOM     41 N41  LIG A   1      21.353  21.716  11.104  1.00 20.00    -0.386 NA
ATOM     42 C42  LIG A   1      21.508  19.383  10.193  1.00 20.00    +0.075 C 
ATOM     43 N43  LIG A   1      20.702  18.807   9.141  1.00 20.00    -0.348 NA
ATOM     44 C44  LIG A   1      20.954  17.546   8.648  1.00 20.00    +0.237 C 
ATOM     45 O45  LIG A   1      21.776  16.783   9.145  1.00 20.00    -0.273 OA
ATOM     46 C46  LIG A   1      20.158  17.220   7.374  1.00 20.00    +0.087 C 
ATOM     47 C47  LIG A   1      19.843  15.738   7.206  1.00 20.00    -0.027 C 
ATOM     48 C48  LIG A   1      18.399  15.691   6.721  1.00 20.00    -0.039 C 
ATOM     49 C49  LIG A   1      18.052  17.133   6.399  1.00 20.00    -0.004 C 
ATOM     50 N50  LIG A   1      18.838  17.911   7.365  1.00 20.00    -0.306 NA
ATOM     51 H51  LIG A   1      16.116  11.637   5.253  1.00 20.00    +0.023 H 
ATOM     52 H52  LIG A   1      14.932  12.781   4.600  1.00 20.00    +0.023 H 
ATOM     53 H53  LIG A   1      15.924  11.822   3.497  1.00 20.00    +0.023 H 
ATOM     54 H54  LIG A   1      16.684  14.159   3.650  1.00 20.00    +0.032 H 
ATOM     55 H55  LIG A   1      15.927  14.232   6.171  1.00 20.00    +0.032 H 
ATOM     56 H56  LIG A   1      17.542  13.664   6.542  1.00 20.00    +0.032 H 
ATOM     57 H57  LIG A   1      17.803  17.549   6.590  1.00 20.00    +0.063 H 
ATOM     58 H58  LIG A   1      18.023  14.947   8.228  1.00 20.00    +0.063 H 
ATOM     59 H59  LIG A   1      20.200  18.127   6.146  1.00 20.00    +0.066 H 
ATOM     60 H60  LIG A   1      20.801  20.678   6.822  1.00 20.00    +0.066 H 
ATOM     61 H61  LIG A   1      21.230  22.512   8.430  1.00 20.00    +0.063 H 
ATOM     62 H62  LIG A   1      21.496  24.287  10.053  1.00 20.00    +0.064 H 
ATOM     63 H63  LIG A   1      20.989  23.724  13.651  1.00 20.00    +0.160 HD
ATOM     64 H64  LIG A   1      21.468  25.838  11.639  1.00 20.00    +0.049 H 
ATOM     65 H65  LIG A   1      22.799  24.908  12.369  1.00 20.00    +0.049 H 
ATOM     66 H66  LIG A   1      20.686  26.456  13.986  1.00 20.00    +0.037 H 
ATOM     67 H67  LIG A   1      22.224  27.159  13.464  1.00 20.00    +0.037 H 
ATOM     68 H68  LIG A   1      24.095  26.411  14.432  1.00 20.00    +0.189 HD
ATOM     69 H69  LIG A   1      22.227  24.675  16.643  1.00 20.00    +0.157 HD
ATOM     70 H70  LIG A   1      20.745  25.067  15.923  1.00 20.00    +0.157 HD
ATOM     71 H71  LIG A   1      19.913  21.726  13.131  1.00 20.00    +0.064 H 
ATOM     72 H72  LIG A   1      19.634  19.936  11.497  1.00 20.00    +0.063 H 
ATOM     73 H73  LIG A   1      19.781  14.667   9.599  1.00 20.00    +0.047 H 
ATOM     74 H74  LIG A   1      21.948  17.148  11.608  1.00 20.00    +0.296 HD
ATOM     75 H75  LIG A   1      22.101  16.075   8.140  1.00 20.00    +0.028 H 
ATOM     76 H76  LIG A   1      22.215  14.633   9.125  1.00 20.00    +0.028 H 
ATOM     77 H77  LIG A   1      20.273  13.738   7.478  1.00 20.00    +0.029 H 
ATOM     78 H78  LIG A   1      21.991  13.519   7.222  1.00 20.00    +0.029 H 
ATOM     79 H79  LIG A   1      21.243  16.046   5.968  1.00 20.00    +0.050 H 
ATOM     80 H80  LIG A   1      22.023  14.619   5.279  1.00 20.00    +0.050 H 
ATOM     81 H81  LIG A   1      20.019  16.131   3.607  1.00 20.00    +0.082 H 
ATOM     82 H82  LIG A   1      17.712  16.925   3.958  1.00 20.00    +0.064 H 
ATOM     83 H83  LIG A   1      18.304  11.787   4.318  1.00 20.00    +0.057 H 
ATOM     84 H84  LIG A   1      18.831  13.888   2.375  1.00 20.00    +0.119 HD
ATOM     85 H85  LIG A   1      19.503  12.404   2.449  1.00 20.00    +0.119 HD
ATOM     86 H86  LIG A   1      19.165  19.476  10.849  1.00 20.00    +0.189 HD
ATOM     87 H87  LIG A   1      20.802  22.295  11.731  1.00 20.00    +0.157 HD
ATOM     88 H88  LIG A   1      22.335  21.679  11.345  1.00 20.00    +0.157 HD
ATOM     89 H89  LIG A   1      22.445  19.743   9.757  1.00 20.00    +0.058 H 
ATOM     90 H90  LIG A   1      21.726  18.631  10.957  1.00 20.00    +0.058 H 
ATOM     91 H91  LIG A   1      20.124  19.414   8.564  1.00 20.00    +0.163 HD
ATOM     92 H92  LIG A   1      20.749  17.582   6.524  1.00 20.00    +0.057 H 
ATOM     93 H93  LIG A   1      20.512  15.289   6.463  1.00 20.00    +0.029 H 
ATOM     94 H94  LIG A   1      19.946  15.167   8.134  1.00 20.00    +0.029 H 
ATOM     95 H95  LIG A   1      17.755  15.313   7.524  1.00 20.00    +0.028 H 
ATOM     96 H96  LIG A   1      18.277  15.035   5.855  1.00 20.00    +0.028 H 
ATOM     97 H97  LIG A   1      18.354  17.392   5.379  1.00 20.00    +0.043 H 
ATOM     98 H98  LIG A   1      16.981  17.333   6.498  1.00 20.00    +0.043 H 
ATOM     99 H99  LIG A   1      18.414  17.773   8.287  1.00 20.00    +0.123 HD
ENDROOT
TORSDOF 0
                                                                                                      
ENDMDL
MODEL 6
REMARK VINA RESULT:   -10.835      3.814      9.009
REMARK INTER + INTRA:         -10.835
REMARK INTER:                 -10.835
REMARK INTRA:                   0.000
REMARK UNBOUND:                 0.000
ROOT
ATOM      1 C1   LIG A   1      26.102  24.751   6.697  1.00 20.00    -0.060 C 
ATOM      2 C2   LIG A   1      24.700  24.185   6.409  1.00 20.00    -0.016 C 
ATOM      3 C3   LIG A   1      24.507  22.860   7.186  1.00 20.00    -0.023 C 
ATOM      4 C4   LIG A   1      23.568  21.860   6.526  1.00 20.00    -0.046 C 
ATOM      5 C5   LIG A   1      23.117  20.709   7.081  1.00 20.00    -0.059 C 
ATOM      6 C6   LIG A   1      22.732  20.705   8.486  1.00 20.00    -0.054 C 
ATOM      7 C7   LIG A   1      21.522  20.305   8.950  1.00 20.00    +0.009 C 
ATOM      8 C8   LIG A   1      20.656  19.453   8.177  1.00 20.00    +0.131 A 
ATOM      9 C9   LIG A   1      19.995  19.651   6.971  1.00 20.00    -0.015 A 
ATOM     10 C10  LIG A   1      19.217  18.499   6.701  1.00 20.00    -0.015 A 
ATOM     11 C11  LIG A   1      19.414  17.640   7.758  1.00 20.00    +0.134 A 
ATOM     12 C12  LIG A   1      18.908  16.318   8.119  1.00 20.00    +0.017 A 
ATOM     13 C13  LIG A   1      17.947  15.677   7.329  1.00 20.00    -0.049 A 
ATOM     14 C14  LIG A   1      17.451  14.411   7.676  1.00 20.00    -0.038 A 
ATOM     15 C15  LIG A   1      17.878  13.757   8.836  1.00 20.00    +0.034 A 
ATOM     16 N16  LIG A   1      17.475  12.465   9.198  1.00 20.00    -0.385 NA
ATOM     17 C17  LIG A   1      16.203  11.946   8.696  1.00 20.00    +0.022 C 
ATOM     18 C18  LIG A   1      15.948  10.541   9.241  1.00 20.00    +0.022 C 
ATOM     19 C19  LIG A   1      15.576  10.594  10.705  1.00 20.00    +0.092 C 
ATOM     20 N20  LIG A   1      14.349  10.685  11.099  1.00 20.00    -0.289 NA
ATOM     21 N21  LIG A   1      16.556  10.557  11.649  1.00 20.00    -0.388 NA
ATOM     22 C22  LIG A   1      18.872  14.383   9.597  1.00 20.00    -0.038 A 
ATOM     23 C23  LIG A   1      19.370  15.646   9.256  1.00 20.00    -0.049 A 
ATOM     24 O24  LIG A   1      20.275  18.214   8.643  1.00 20.00    -0.456 OA
ATOM     25 C25  LIG A   1      21.050  20.888  10.280  1.00 20.00    +0.085 C 
ATOM     26 C26  LIG A   1      20.535  19.771  11.180  1.00 20.00    +0.311 C 
ATOM     27 O27  LIG A   1      21.225  18.921  11.724  1.00 20.00    -0.252 OA
ATOM     28 O28  LIG A   1      19.198  19.753  11.340  1.00 20.00    -0.481 OA
ATOM     29 C29  LIG A   1      20.018  22.027  10.036  1.00 20.00    -0.034 C 
ATOM     30 C30  LIG A   1      20.618  23.291   9.379  1.00 20.00    -0.034 C 
ATOM     31 C31  LIG A   1      20.342  23.484   7.861  1.00 20.00    +0.025 C 
ATOM     32 N32  LIG A   1      21.555  23.793   7.073  1.00 20.00    -0.318 NA
ATOM     33 C33  LIG A   1      21.684  23.215   5.814  1.00 20.00    +0.007 C 
ATOM     34 C34  LIG A   1      22.680  22.374   5.486  1.00 20.00    -0.043 C 
ATOM     35 C35  LIG A   1      22.336  24.878   7.486  1.00 20.00    +0.243 C 
ATOM     36 O36  LIG A   1      21.988  25.592   8.437  1.00 20.00    -0.273 OA
ATOM     37 C37  LIG A   1      23.632  25.267   6.720  1.00 20.00    +0.088 C 
ATOM     38 N38  LIG A   1      23.305  26.072   5.518  1.00 20.00    -0.320 NA
ATOM     39 N39  LIG A   1      20.086  15.861   9.305  1.00 20.00    -0.287 NA
ATOM     40 C40  LIG A   1      18.866  16.296   9.285  1.00 20.00    +0.110 C 
ATOM     41 N41  LIG A   1      17.862  15.397   9.099  1.00 20.00    -0.386 NA
ATOM     42 C42  LIG A   1      18.551  17.779   9.482  1.00 20.00    +0.075 C 
ATOM     43 N43  LIG A   1      19.469  18.555   8.682  1.00 20.00    -0.348 NA
ATOM     44 C44  LIG A   1      19.686  19.894   8.926  1.00 20.00    +0.237 C 
ATOM     45 O45  LIG A   1      19.230  20.479   9.902  1.00 20.00    -0.273 OA
ATOM     46 C46  LIG A   1      20.492  20.592   7.820  1.00 20.00    +0.087 C 
ATOM     47 C47  LIG A   1      21.331  21.765   8.315  1.00 20.00    -0.027 C 
ATOM     48 C48  LIG A   1      22.666  21.632   7.594  1.00 20.00    -0.039 C 
ATOM     49 C49  LIG A   1      22.436  20.555   6.550  1.00 20.00    -0.004 C 
ATOM     50 N50  LIG A   1      21.457  19.657   7.176  1.00 20.00    -0.306 NA
ATOM     51 H51  LIG A   1      26.234  24.955   7.766  1.00 20.00    +0.023 H 
ATOM     52 H52  LIG A   1      26.877  24.042   6.391  1.00 20.00    +0.023 H 
ATOM     53 H53  LIG A   1      26.270  25.683   6.146  1.00 20.00    +0.023 H 
ATOM     54 H54  LIG A   1      24.700  23.970   5.331  1.00 20.00    +0.032 H 
ATOM     55 H55  LIG A   1      25.479  22.352   7.256  1.00 20.00    +0.032 H 
ATOM     56 H56  LIG A   1      24.210  23.084   8.215  1.00 20.00    +0.032 H 
ATOM     57 H57  LIG A   1      22.519  20.050   6.454  1.00 20.00    +0.063 H 
ATOM     58 H58  LIG A   1      23.355  21.313   9.139  1.00 20.00    +0.063 H 
ATOM     59 H59  LIG A   1      20.064  20.536   6.355  1.00 20.00    +0.066 H 
ATOM     60 H60  LIG A   1      18.582  18.329   5.844  1.00 20.00    +0.066 H 
ATOM     61 H61  LIG A   1      17.568  16.147   6.425  1.00 20.00    +0.063 H 
ATOM     62 H62  LIG A   1      16.726  13.954   7.011  1.00 20.00    +0.064 H 
ATOM     63 H63  LIG A   1      17.555  12.343  10.210  1.00 20.00    +0.160 HD
ATOM     64 H64  LIG A   1      16.239  11.872   7.603  1.00 20.00    +0.049 H 
ATOM     65 H65  LIG A   1      15.382  12.618   8.974  1.00 20.00    +0.049 H 
ATOM     66 H66  LIG A   1      16.831   9.905   9.113  1.00 20.00    +0.037 H 
ATOM     67 H67  LIG A   1      15.121  10.079   8.691  1.00 20.00    +0.037 H 
ATOM     68 H68  LIG A   1      13.706  10.714  10.300  1.00 20.00    +0.189 HD
ATOM     69 H69  LIG A   1      16.178  10.367  12.573  1.00 20.00    +0.157 HD
ATOM     70 H70  LIG A   1      17.375   9.998  11.433  1.00 20.00    +0.157 HD
ATOM     71 H71  LIG A   1      19.277  13.887  10.478  1.00 20.00    +0.064 H 
ATOM     72 H72  LIG A   1      20.136  16.092   9.888  1.00 20.00    +0.063 H 
ATOM     73 H73  LIG A   1      21.887  21.328  10.840  1.00 20.00    +0.047 H 
ATOM     74 H74  LIG A   1      19.037  18.933  11.853  1.00 20.00    +0.296 HD
ATOM     75 H75  LIG A   1      19.150  21.671   9.466  1.00 20.00    +0.028 H 
ATOM     76 H76  LIG A   1      19.625  22.328  11.018  1.00 20.00    +0.028 H 
ATOM     77 H77  LIG A   1      21.690  23.337   9.604  1.00 20.00    +0.029 H 
ATOM     78 H78  LIG A   1      20.169  24.155   9.888  1.00 20.00    +0.029 H 
ATOM     79 H79  LIG A   1      19.866  22.592   7.443  1.00 20.00    +0.050 H 
ATOM     80 H80  LIG A   1      19.648  24.322   7.724  1.00 20.00    +0.050 H 
ATOM     81 H81  LIG A   1      20.871  23.414   5.121  1.00 20.00    +0.082 H 
ATOM     82 H82  LIG A   1      22.727  21.914   4.503  1.00 20.00    +0.064 H 
ATOM     83 H83  LIG A   1      24.112  25.980   7.408  1.00 20.00    +0.057 H 
ATOM     84 H84  LIG A   1      22.758  25.498   4.878  1.00 20.00    +0.119 HD
ATOM     85 H85  LIG A   1      22.692  26.837   5.807  1.00 20.00    +0.119 HD
ATOM     86 H86  LIG A   1      20.715  16.663   9.452  1.00 20.00    +0.189 HD
ATOM     87 H87  LIG A   1      18.182  14.441   9.225  1.00 20.00    +0.157 HD
ATOM     88 H88  LIG A   1      16.975  15.589   9.549  1.00 20.00    +0.157 HD
ATOM     89 H89  LIG A   1      17.531  18.002   9.157  1.00 20.00    +0.058 H 
ATOM     90 H90  LIG A   1      18.662  18.035  10.540  1.00 20.00    +0.058 H 
ATOM     91 H91  LIG A   1      19.754  18.208   7.768  1.00 20.00    +0.163 HD
ATOM     92 H92  LIG A   1      19.774  20.931   7.063  1.00 20.00    +0.057 H 
ATOM     93 H93  LIG A   1      20.847  22.714   8.056  1.00 20.00    +0.029 H 
ATOM     94 H94  LIG A   1      21.487  21.757   9.398  1.00 20.00    +0.029 H 
ATOM     95 H95  LIG A   1      23.438  21.316   8.305  1.00 20.00    +0.028 H 
ATOM     96 H96  LIG A   1      22.988  22.577   7.146  1.00 20.00    +0.028 H 
ATOM     97 H97  LIG A   1      22.017  20.980   5.632  1.00 20.00    +0.043 H 
ATOM     98 H98  LIG A   1      23.358  20.027   6.290  1.00 20.00    +0.043 H 
ATOM     99 H99  LIG A   1      21.940  19.152   7.925  1.00 20.00    +0.123 HD
ENDROOT
TORSDOF 0
                                                                                                      
ENDMDL
MODEL 7
REMARK VINA RESULT:   -10.823      5.037      7.702
REMARK INTER + INTRA:         -10.823
REMARK INTER:                 -10.823
REMARK INTRA:                   0.000
REMARK UNBOUND:                 0.000
ROOT
ATOM      1 C1   LIG A   1      22.709  19.250   5.635  1.00 20.00    -0.060 C 
ATOM      2 C2   LIG A   1      22.629  20.707   6.125  1.00 20.00    -0.016 C 
ATOM      3 C3   LIG A   1      21.875  20.757   7.476  1.00 20.00    -0.023 C 
ATOM      4 C4   LIG A   1      21.114  22.049   7.739  1.00 20.00    -0.046 C 
ATOM      5 C5   LIG A   1      20.516  22.395   8.905  1.00 20.00    -0.059 C 
ATOM      6 C6   LIG A   1      21.195  22.105  10.161  1.00 20.00    -0.054 C 
ATOM      7 C7   LIG A   1      21.475  23.027  11.115  1.00 20.00    +0.009 C 
ATOM      8 C8   LIG A   1      20.770  24.281  11.190  1.00 20.00    +0.131 A 
ATOM      9 C9   LIG A   1      20.713  25.366  10.324  1.00 20.00    -0.015 A 
ATOM     10 C10  LIG A   1      19.915  26.369  10.927  1.00 20.00    -0.015 A 
ATOM     11 C11  LIG A   1      19.522  25.871  12.149  1.00 20.00    +0.134 A 
ATOM     12 C12  LIG A   1      18.725  26.381  13.261  1.00 20.00    +0.017 A 
ATOM     13 C13  LIG A   1      18.227  27.689  13.246  1.00 20.00    -0.049 A 
ATOM     14 C14  LIG A   1      17.467  28.187  14.316  1.00 20.00    -0.038 A 
ATOM     15 C15  LIG A   1      17.206  27.406  15.446  1.00 20.00    +0.034 A 
ATOM     16 N16  LIG A   1      16.396  27.820  16.512  1.00 20.00    -0.385 NA
ATOM     17 C17  LIG A   1      16.225  29.251  16.765  1.00 20.00    +0.022 C 
ATOM     18 C18  LIG A   1      15.337  29.474  17.989  1.00 20.00    +0.022 C 
ATOM     19 C19  LIG A   1      16.082  29.135  19.260  1.00 20.00    +0.092 C 
ATOM     20 N20  LIG A   1      16.758  30.020  19.916  1.00 20.00    -0.289 NA
ATOM     21 N21  LIG A   1      16.058  27.859  19.733  1.00 20.00    -0.388 NA
ATOM     22 C22  LIG A   1      17.668  26.085  15.435  1.00 20.00    -0.038 A 
ATOM     23 C23  LIG A   1      18.426  25.583  14.371  1.00 20.00    -0.049 A 
ATOM     24 O24  LIG A   1      20.038  24.620  12.306  1.00 20.00    -0.456 OA
ATOM     25 C25  LIG A   1      22.654  22.746  12.043  1.00 20.00    +0.085 C 
ATOM     26 C26  LIG A   1      22.242  22.987  13.490  1.00 20.00    +0.311 C 
ATOM     27 O27  LIG A   1      21.480  22.284  14.139  1.00 20.00    -0.252 OA
ATOM     28 O28  LIG A   1      22.775  24.091  14.047  1.00 20.00    -0.481 OA
ATOM     29 C29  LIG A   1      23.901  23.563  11.598  1.00 20.00    -0.034 C 
ATOM     30 C30  LIG A   1      24.501  23.113  10.246  1.00 20.00    -0.034 C 
ATOM     31 C31  LIG A   1      24.179  24.001   9.012  1.00 20.00    +0.025 C 
ATOM     32 N32  LIG A   1      23.696  23.236   7.842  1.00 20.00    -0.318 NA
ATOM     33 C33  LIG A   1      22.674  23.787   7.076  1.00 20.00    +0.007 C 
ATOM     34 C34  LIG A   1      21.472  23.205   6.921  1.00 20.00    -0.043 C 
ATOM     35 C35  LIG A   1      24.492  22.178   7.386  1.00 20.00    +0.243 C 
ATOM     36 O36  LIG A   1      25.590  21.935   7.905  1.00 20.00    -0.273 OA
ATOM     37 C37  LIG A   1      24.054  21.317   6.168  1.00 20.00    +0.088 C 
ATOM     38 N38  LIG A   1      24.392  22.003   4.897  1.00 20.00    -0.320 NA
ATOM     39 N39  LIG A   1      18.367  24.895  14.079  1.00 20.00    -0.287 NA
ATOM     40 C40  LIG A   1      19.172  25.900  14.226  1.00 20.00    +0.110 C 
ATOM     41 N41  LIG A   1      18.703  27.019  14.841  1.00 20.00    -0.386 NA
ATOM     42 C42  LIG A   1      20.619  25.831  13.740  1.00 20.00    +0.075 C 
ATOM     43 N43  LIG A   1      20.635  25.250  12.418  1.00 20.00    -0.348 NA
ATOM     44 C44  LIG A   1      21.785  24.719  11.876  1.00 20.00    +0.237 C 
ATOM     45 O45  LIG A   1      22.824  24.581  12.513  1.00 20.00    -0.273 OA
ATOM     46 C46  LIG A   1      21.657  24.387  10.381  1.00 20.00    +0.087 C 
ATOM     47 C47  LIG A   1      22.538  23.227   9.930  1.00 20.00    -0.027 C 
ATOM     48 C48  LIG A   1      21.661  22.402   8.997  1.00 20.00    -0.039 C 
ATOM     49 C49  LIG A   1      20.428  23.257   8.767  1.00 20.00    -0.004 C 
ATOM     50 N50  LIG A   1      20.265  23.990  10.029  1.00 20.00    -0.306 NA
ATOM     51 H51  LIG A   1      23.246  18.620   6.353  1.00 20.00    +0.023 H 
ATOM     52 H52  LIG A   1      21.708  18.829   5.500  1.00 20.00    +0.023 H 
ATOM     53 H53  LIG A   1      23.225  19.188   4.670  1.00 20.00    +0.023 H 
ATOM     54 H54  LIG A   1      22.030  21.227   5.363  1.00 20.00    +0.032 H 
ATOM     55 H55  LIG A   1      21.117  19.961   7.483  1.00 20.00    +0.032 H 
ATOM     56 H56  LIG A   1      22.570  20.518   8.287  1.00 20.00    +0.032 H 
ATOM     57 H57  LIG A   1      19.933  23.314   8.917  1.00 20.00    +0.063 H 
ATOM     58 H58  LIG A   1      21.735  21.160  10.188  1.00 20.00    +0.063 H 
ATOM     59 H59  LIG A   1      21.201  25.428   9.362  1.00 20.00    +0.066 H 
ATOM     60 H60  LIG A   1      19.671  27.338  10.520  1.00 20.00    +0.066 H 
ATOM     61 H61  LIG A   1      18.414  28.345  12.401  1.00 20.00    +0.063 H 
ATOM     62 H62  LIG A   1      17.088  29.200  14.236  1.00 20.00    +0.064 H 
ATOM     63 H63  LIG A   1      16.653  27.318  17.364  1.00 20.00    +0.160 HD
ATOM     64 H64  LIG A   1      15.728  29.722  15.909  1.00 20.00    +0.049 H 
ATOM     65 H65  LIG A   1      17.201  29.730  16.910  1.00 20.00    +0.049 H 
ATOM     66 H66  LIG A   1      14.427  28.866  17.928  1.00 20.00    +0.037 H 
ATOM     67 H67  LIG A   1      15.034  30.525  18.036  1.00 20.00    +0.037 H 
ATOM     68 H68  LIG A   1      16.708  30.936  19.458  1.00 20.00    +0.189 HD
ATOM     69 H69  LIG A   1      16.391  27.810  20.692  1.00 20.00    +0.157 HD
ATOM     70 H70  LIG A   1      15.203  27.334  19.583  1.00 20.00    +0.157 HD
ATOM     71 H71  LIG A   1      17.440  25.421  16.268  1.00 20.00    +0.064 H 
ATOM     72 H72  LIG A   1      18.770  24.551  14.417  1.00 20.00    +0.063 H 
ATOM     73 H73  LIG A   1      22.939  21.684  12.012  1.00 20.00    +0.047 H 
ATOM     74 H74  LIG A   1      22.336  24.144  14.922  1.00 20.00    +0.296 HD
ATOM     75 H75  LIG A   1      23.695  24.640  11.589  1.00 20.00    +0.028 H 
ATOM     76 H76  LIG A   1      24.678  23.416  12.362  1.00 20.00    +0.028 H 
ATOM     77 H77  LIG A   1      24.237  22.063  10.069  1.00 20.00    +0.029 H 
ATOM     78 H78  LIG A   1      25.593  23.129  10.365  1.00 20.00    +0.029 H 
ATOM     79 H79  LIG A   1      23.435  24.759   9.270  1.00 20.00    +0.050 H 
ATOM     80 H80  LIG A   1      25.090  24.526   8.698  1.00 20.00    +0.050 H 
ATOM     81 H81  LIG A   1      22.871  24.776   6.671  1.00 20.00    +0.082 H 
ATOM     82 H82  LIG A   1      20.686  23.683   6.344  1.00 20.00    +0.064 H 
ATOM     83 H83  LIG A   1      24.750  20.465   6.215  1.00 20.00    +0.057 H 
ATOM     84 H84  LIG A   1      23.857  22.869   4.840  1.00 20.00    +0.119 HD
ATOM     85 H85  LIG A   1      25.374  22.279   4.938  1.00 20.00    +0.119 HD
ATOM     86 H86  LIG A   1      18.874  24.139  13.598  1.00 20.00    +0.189 HD
ATOM     87 H87  LIG A   1      17.825  26.847  15.322  1.00 20.00    +0.157 HD
ATOM     88 H88  LIG A   1      19.362  27.562  15.385  1.00 20.00    +0.157 HD
ATOM     89 H89  LIG A   1      21.054  26.834  13.686  1.00 20.00    +0.058 H 
ATOM     90 H90  LIG A   1      21.204  25.216  14.430  1.00 20.00    +0.058 H 
ATOM     91 H91  LIG A   1      19.884  25.469  11.765  1.00 20.00    +0.163 HD
ATOM     92 H92  LIG A   1      21.914  25.297   9.826  1.00 20.00    +0.057 H 
ATOM     93 H93  LIG A   1      23.418  23.603   9.397  1.00 20.00    +0.029 H 
ATOM     94 H94  LIG A   1      22.892  22.606  10.759  1.00 20.00    +0.029 H 
ATOM     95 H95  LIG A   1      21.386  21.460   9.488  1.00 20.00    +0.028 H 
ATOM     96 H96  LIG A   1      22.172  22.156   8.062  1.00 20.00    +0.028 H 
ATOM     97 H97  LIG A   1      20.588  23.962   7.944  1.00 20.00    +0.043 H 
ATOM     98 H98  LIG A   1      19.545  22.655   8.534  1.00 20.00    +0.043 H 
ATOM     99 H99  LIG A   1      19.950  23.318  10.735  1.00 20.00    +0.123 HD
ENDROOT
TORSDOF 0
                                                                                                      
ENDMDL
MODEL 8
REMARK VINA RESULT:   -10.795      4.328      5.790
REMARK INTER + INTRA:         -10.795
REMARK INTER:                 -10.795
REMARK INTRA:                   0.000
REMARK UNBOUND:                 0.000
ROOT
ATOM      1 C1   LIG A   1      20.902  12.635  11.721  1.00 20.00    -0.060 C 
ATOM      2 C2   LIG A   1      20.114  13.890  11.304  1.00 20.00    -0.016 C 
ATOM      3 C3   LIG A   1      21.082  14.924  10.679  1.00 20.00    -0.023 C 
ATOM      4 C4   LIG A   1      20.672  16.378  10.860  1.00 20.00    -0.046 C 
ATOM      5 C5   LIG A   1      21.262  17.448  10.274  1.00 20.00    -0.059 C 
ATOM      6 C6   LIG A   1      21.674  17.353   8.879  1.00 20.00    -0.054 C 
ATOM      7 C7   LIG A   1      21.287  18.211   7.903  1.00 20.00    +0.009 C 
ATOM      8 C8   LIG A   1      20.792  19.529   8.203  1.00 20.00    +0.131 A 
ATOM      9 C9   LIG A   1      19.652  19.962   8.869  1.00 20.00    -0.015 A 
ATOM     10 C10  LIG A   1      19.623  21.377   8.817  1.00 20.00    -0.015 A 
ATOM     11 C11  LIG A   1      20.736  21.764   8.107  1.00 20.00    +0.134 A 
ATOM     12 C12  LIG A   1      21.289  23.045   7.674  1.00 20.00    +0.017 A 
ATOM     13 C13  LIG A   1      20.604  24.241   7.919  1.00 20.00    -0.049 A 
ATOM     14 C14  LIG A   1      21.127  25.473   7.497  1.00 20.00    -0.038 A 
ATOM     15 C15  LIG A   1      22.334  25.549   6.796  1.00 20.00    +0.034 A 
ATOM     16 N16  LIG A   1      22.941  26.751   6.412  1.00 20.00    -0.385 NA
ATOM     17 C17  LIG A   1      22.115  27.946   6.240  1.00 20.00    +0.022 C 
ATOM     18 C18  LIG A   1      22.973  29.128   5.788  1.00 20.00    +0.022 C 
ATOM     19 C19  LIG A   1      23.391  28.965   4.344  1.00 20.00    +0.092 C 
ATOM     20 N20  LIG A   1      22.689  29.439   3.369  1.00 20.00    -0.289 NA
ATOM     21 N21  LIG A   1      24.534  28.289   4.049  1.00 20.00    -0.388 NA
ATOM     22 C22  LIG A   1      23.036  24.355   6.595  1.00 20.00    -0.038 A 
ATOM     23 C23  LIG A   1      22.519  23.122   7.012  1.00 20.00    -0.049 A 
ATOM     24 O24  LIG A   1      21.434  20.654   7.737  1.00 20.00    -0.456 OA
ATOM     25 C25  LIG A   1      21.281  17.689   6.468  1.00 20.00    +0.085 C 
ATOM     26 C26  LIG A   1      21.973  18.690   5.550  1.00 20.00    +0.311 C 
ATOM     27 O27  LIG A   1      23.174  18.923   5.529  1.00 20.00    -0.252 OA
ATOM     28 O28  LIG A   1      21.145  19.362   4.729  1.00 20.00    -0.481 OA
ATOM     29 C29  LIG A   1      19.833  17.329   6.028  1.00 20.00    -0.034 C 
ATOM     30 C30  LIG A   1      19.234  16.110   6.768  1.00 20.00    -0.034 C 
ATOM     31 C31  LIG A   1      18.212  16.415   7.898  1.00 20.00    +0.025 C 
ATOM     32 N32  LIG A   1      18.495  15.699   9.162  1.00 20.00    -0.318 NA
ATOM     33 C33  LIG A   1      18.297  16.379  10.359  1.00 20.00    +0.007 C 
ATOM     34 C34  LIG A   1      19.284  16.632  11.236  1.00 20.00    -0.043 C 
ATOM     35 C35  LIG A   1      18.632  14.308   9.100  1.00 20.00    +0.243 C 
ATOM     36 O36  LIG A   1      18.458  13.694   8.038  1.00 20.00    -0.273 OA
ATOM     37 C37  LIG A   1      18.938  13.478  10.379  1.00 20.00    +0.088 C 
ATOM     38 N38  LIG A   1      17.696  13.235  11.152  1.00 20.00    -0.320 NA
ATOM     39 N39  LIG A   1      22.915  22.563   7.316  1.00 20.00    -0.287 NA
ATOM     40 C40  LIG A   1      21.831  22.837   6.662  1.00 20.00    +0.110 C 
ATOM     41 N41  LIG A   1      21.548  24.141   6.396  1.00 20.00    -0.386 NA
ATOM     42 C42  LIG A   1      20.896  21.728   6.181  1.00 20.00    +0.075 C 
ATOM     43 N43  LIG A   1      20.714  20.779   7.255  1.00 20.00    -0.348 NA
ATOM     44 C44  LIG A   1      20.245  19.505   7.021  1.00 20.00    +0.237 C 
ATOM     45 O45  LIG A   1      20.079  19.048   5.896  1.00 20.00    -0.273 OA
ATOM     46 C46  LIG A   1      19.883  18.744   8.307  1.00 20.00    +0.087 C 
ATOM     47 C47  LIG A   1      20.050  17.233   8.196  1.00 20.00    -0.027 C 
ATOM     48 C48  LIG A   1      20.692  16.807   9.510  1.00 20.00    -0.039 C 
ATOM     49 C49  LIG A   1      20.626  18.041  10.391  1.00 20.00    -0.004 C 
ATOM     50 N50  LIG A   1      20.749  19.158   9.446  1.00 20.00    -0.306 NA
ATOM     51 H51  LIG A   1      21.392  12.171  10.858  1.00 20.00    +0.023 H 
ATOM     52 H52  LIG A   1      21.675  12.888  12.453  1.00 20.00    +0.023 H 
ATOM     53 H53  LIG A   1      20.241  11.892  12.182  1.00 20.00    +0.023 H 
ATOM     54 H54  LIG A   1      19.716  14.297  12.244  1.00 20.00    +0.032 H 
ATOM     55 H55  LIG A   1      22.060  14.829  11.171  1.00 20.00    +0.032 H 
ATOM     56 H56  LIG A   1      21.249  14.673   9.626  1.00 20.00    +0.032 H 
ATOM     57 H57  LIG A   1      20.914  18.437  10.567  1.00 20.00    +0.063 H 
ATOM     58 H58  LIG A   1      22.080  16.388   8.581  1.00 20.00    +0.063 H 
ATOM     59 H59  LIG A   1      18.919  19.323   9.339  1.00 20.00    +0.066 H 
ATOM     60 H60  LIG A   1      18.871  22.028   9.238  1.00 20.00    +0.066 H 
ATOM     61 H61  LIG A   1      19.654  24.239   8.445  1.00 20.00    +0.063 H 
ATOM     62 H62  LIG A   1      20.562  26.368   7.737  1.00 20.00    +0.064 H 
ATOM     63 H63  LIG A   1      23.548  26.597   5.605  1.00 20.00    +0.160 HD
ATOM     64 H64  LIG A   1      21.655  28.221   7.196  1.00 20.00    +0.049 H 
ATOM     65 H65  LIG A   1      21.317  27.754   5.511  1.00 20.00    +0.049 H 
ATOM     66 H66  LIG A   1      23.865  29.226   6.416  1.00 20.00    +0.037 H 
ATOM     67 H67  LIG A   1      22.396  30.055   5.878  1.00 20.00    +0.037 H 
ATOM     68 H68  LIG A   1      21.851  29.917   3.715  1.00 20.00    +0.189 HD
ATOM     69 H69  LIG A   1      24.823  28.446   3.086  1.00 20.00    +0.157 HD
ATOM     70 H70  LIG A   1      25.298  28.375   4.710  1.00 20.00    +0.157 HD
ATOM     71 H71  LIG A   1      24.007  24.370   6.103  1.00 20.00    +0.064 H 
ATOM     72 H72  LIG A   1      23.101  22.222   6.822  1.00 20.00    +0.063 H 
ATOM     73 H73  LIG A   1      21.881  16.772   6.376  1.00 20.00    +0.047 H 
ATOM     74 H74  LIG A   1      21.731  20.016   4.293  1.00 20.00    +0.296 HD
ATOM     75 H75  LIG A   1      19.161  18.194   6.104  1.00 20.00    +0.028 H 
ATOM     76 H76  LIG A   1      19.869  17.074   4.960  1.00 20.00    +0.028 H 
ATOM     77 H77  LIG A   1      20.051  15.470   7.122  1.00 20.00    +0.029 H 
ATOM     78 H78  LIG A   1      18.697  15.517   6.014  1.00 20.00    +0.029 H 
ATOM     79 H79  LIG A   1      18.175  17.489   8.101  1.00 20.00    +0.050 H 
ATOM     80 H80  LIG A   1      17.211  16.107   7.573  1.00 20.00    +0.050 H 
ATOM     81 H81  LIG A   1      17.299  16.782  10.511  1.00 20.00    +0.082 H 
ATOM     82 H82  LIG A   1      19.098  17.197  12.145  1.00 20.00    +0.064 H 
ATOM     83 H83  LIG A   1      19.205  12.492   9.967  1.00 20.00    +0.057 H 
ATOM     84 H84  LIG A   1      17.331  14.129  11.475  1.00 20.00    +0.119 HD
ATOM     85 H85  LIG A   1      16.995  12.856  10.513  1.00 20.00    +0.119 HD
ATOM     86 H86  LIG A   1      22.976  21.542   7.433  1.00 20.00    +0.189 HD
ATOM     87 H87  LIG A   1      22.353  24.741   6.551  1.00 20.00    +0.157 HD
ATOM     88 H88  LIG A   1      21.051  24.344   5.538  1.00 20.00    +0.157 HD
ATOM     89 H89  LIG A   1      19.919  22.139   5.909  1.00 20.00    +0.058 H 
ATOM     90 H90  LIG A   1      21.338  21.234   5.310  1.00 20.00    +0.058 H 
ATOM     91 H91  LIG A   1      20.662  21.114   8.215  1.00 20.00    +0.163 HD
ATOM     92 H92  LIG A   1      18.842  18.995   8.547  1.00 20.00    +0.057 H 
ATOM     93 H93  LIG A   1      19.074  16.751   8.071  1.00 20.00    +0.029 H 
ATOM     94 H94  LIG A   1      20.681  16.930   7.354  1.00 20.00    +0.029 H 
ATOM     95 H95  LIG A   1      21.735  16.519   9.333  1.00 20.00    +0.028 H 
ATOM     96 H96  LIG A   1      20.179  15.952   9.960  1.00 20.00    +0.028 H 
ATOM     97 H97  LIG A   1      19.665  18.099  10.914  1.00 20.00    +0.043 H 
ATOM     98 H98  LIG A   1      21.423  18.057  11.140  1.00 20.00    +0.043 H 
ATOM     99 H99  LIG A   1      21.716  19.168   9.109  1.00 20.00    +0.123 HD
ENDROOT
TORSDOF 0
                                                                                                      
ENDMDL
MODEL 9
REMARK VINA RESULT:   -10.595      3.725      5.222
REMARK INTER + INTRA:         -10.595
REMARK INTER:                 -10.595
REMARK INTRA:                   0.000
REMARK UNBOUND:                 0.000
ROOT
ATOM      1 C1   LIG A   1      20.397  10.166  11.229  1.00 20.00    -0.060 C 
ATOM      2 C2   LIG A   1      19.670  11.515  11.373  1.00 20.00    -0.016 C 
ATOM      3 C3   LIG A   1      20.476  12.617  10.642  1.00 20.00    -0.023 C 
ATOM      4 C4   LIG A   1      20.332  14.014  11.230  1.00 20.00    -0.046 C 
ATOM      5 C5   LIG A   1      20.804  15.159  10.681  1.00 20.00    -0.059 C 
ATOM      6 C6   LIG A   1      20.688  15.352   9.241  1.00 20.00    -0.054 C 
ATOM      7 C7   LIG A   1      20.092  16.419   8.654  1.00 20.00    +0.009 C 
ATOM      8 C8   LIG A   1      19.894  17.660   9.356  1.00 20.00    +0.131 A 
ATOM      9 C9   LIG A   1      19.120  17.987  10.463  1.00 20.00    -0.015 A 
ATOM     10 C10  LIG A   1      19.244  19.379  10.691  1.00 20.00    -0.015 A 
ATOM     11 C11  LIG A   1      20.077  19.862   9.708  1.00 20.00    +0.134 A 
ATOM     12 C12  LIG A   1      20.593  21.181   9.352  1.00 20.00    +0.017 A 
ATOM     13 C13  LIG A   1      20.186  22.323  10.050  1.00 20.00    -0.049 A 
ATOM     14 C14  LIG A   1      20.672  23.594   9.705  1.00 20.00    -0.038 A 
ATOM     15 C15  LIG A   1      21.558  23.768   8.638  1.00 20.00    +0.034 A 
ATOM     16 N16  LIG A   1      22.133  24.998   8.291  1.00 20.00    -0.385 NA
ATOM     17 C17  LIG A   1      21.448  26.237   8.661  1.00 20.00    +0.022 C 
ATOM     18 C18  LIG A   1      22.229  27.449   8.157  1.00 20.00    +0.022 C 
ATOM     19 C19  LIG A   1      22.095  27.587   6.657  1.00 20.00    +0.092 C 
ATOM     20 N20  LIG A   1      21.159  28.294   6.114  1.00 20.00    -0.289 NA
ATOM     21 N21  LIG A   1      22.973  26.942   5.842  1.00 20.00    -0.388 NA
ATOM     22 C22  LIG A   1      21.997  22.617   7.974  1.00 20.00    -0.038 A 
ATOM     23 C23  LIG A   1      21.515  21.347   8.312  1.00 20.00    -0.049 A 
ATOM     24 O24  LIG A   1      20.464  18.831   8.907  1.00 20.00    -0.456 OA
ATOM     25 C25  LIG A   1      19.523  16.223   7.251  1.00 20.00    +0.085 C 
ATOM     26 C26  LIG A   1      19.966  17.369   6.349  1.00 20.00    +0.311 C 
ATOM     27 O27  LIG A   1      21.102  17.548   5.933  1.00 20.00    -0.252 OA
ATOM     28 O28  LIG A   1      18.989  18.240   6.030  1.00 20.00    -0.481 OA
ATOM     29 C29  LIG A   1      17.980  16.032   7.314  1.00 20.00    -0.034 C 
ATOM     30 C30  LIG A   1      17.535  14.709   7.978  1.00 20.00    -0.034 C 
ATOM     31 C31  LIG A   1      17.017  14.804   9.440  1.00 20.00    +0.025 C 
ATOM     32 N32  LIG A   1      17.635  13.818  10.354  1.00 20.00    -0.318 NA
ATOM     33 C33  LIG A   1      17.950  14.228  11.644  1.00 20.00    +0.007 C 
ATOM     34 C34  LIG A   1      19.204  14.240  12.130  1.00 20.00    -0.043 C 
ATOM     35 C35  LIG A   1      17.573  12.468   9.986  1.00 20.00    +0.243 C 
ATOM     36 O36  LIG A   1      16.967  12.110   8.967  1.00 20.00    -0.273 OA
ATOM     37 C37  LIG A   1      18.205  11.367  10.884  1.00 20.00    +0.088 C 
ATOM     38 N38  LIG A   1      17.292  11.016  11.998  1.00 20.00    -0.320 NA
ATOM     39 N39  LIG A   1      21.922  20.718   8.339  1.00 20.00    -0.287 NA
ATOM     40 C40  LIG A   1      20.718  21.176   8.192  1.00 20.00    +0.110 C 
ATOM     41 N41  LIG A   1      20.520  22.517   8.297  1.00 20.00    -0.386 NA
ATOM     42 C42  LIG A   1      19.549  20.241   7.888  1.00 20.00    +0.075 C 
ATOM     43 N43  LIG A   1      19.641  19.089   8.755  1.00 20.00    -0.348 NA
ATOM     44 C44  LIG A   1      18.971  17.919   8.475  1.00 20.00    +0.237 C 
ATOM     45 O45  LIG A   1      18.369  17.726   7.425  1.00 20.00    -0.273 OA
ATOM     46 C46  LIG A   1      18.992  16.912   9.637  1.00 20.00    +0.087 C 
ATOM     47 C47  LIG A   1      18.927  15.456   9.192  1.00 20.00    -0.027 C 
ATOM     48 C48  LIG A   1      19.931  14.725  10.074  1.00 20.00    -0.039 C 
ATOM     49 C49  LIG A   1      20.325  15.739  11.133  1.00 20.00    -0.004 C 
ATOM     50 N50  LIG A   1      20.243  17.029  10.436  1.00 20.00    -0.306 NA
ATOM     51 H51  LIG A   1      20.496   9.880  10.176  1.00 20.00    +0.023 H 
ATOM     52 H52  LIG A   1      21.402  10.219  11.661  1.00 20.00    +0.023 H 
ATOM     53 H53  LIG A   1      19.855   9.371  11.753  1.00 20.00    +0.023 H 
ATOM     54 H54  LIG A   1      19.677  11.725  12.452  1.00 20.00    +0.032 H 
ATOM     55 H55  LIG A   1      21.545  12.374  10.715  1.00 20.00    +0.032 H 
ATOM     56 H56  LIG A   1      20.233  12.595   9.575  1.00 20.00    +0.032 H 
ATOM     57 H57  LIG A   1      20.702  16.074  11.261  1.00 20.00    +0.063 H 
ATOM     58 H58  LIG A   1      20.846  14.459   8.640  1.00 20.00    +0.063 H 
ATOM     59 H59  LIG A   1      18.525  17.294  11.040  1.00 20.00    +0.066 H 
ATOM     60 H60  LIG A   1      18.770  19.955  11.473  1.00 20.00    +0.066 H 
ATOM     61 H61  LIG A   1      19.486  22.249  10.877  1.00 20.00    +0.063 H 
ATOM     62 H62  LIG A   1      20.338  24.439  10.299  1.00 20.00    +0.064 H 
ATOM     63 H63  LIG A   1      22.397  24.997   7.304  1.00 20.00    +0.160 HD
ATOM     64 H64  LIG A   1      21.388  26.315   9.753  1.00 20.00    +0.049 H 
ATOM     65 H65  LIG A   1      20.429  26.242   8.254  1.00 20.00    +0.049 H 
ATOM     66 H66  LIG A   1      23.290  27.369   8.420  1.00 20.00    +0.037 H 
ATOM     67 H67  LIG A   1      21.836  28.359   8.624  1.00 20.00    +0.037 H 
ATOM     68 H68  LIG A   1      20.558  28.720   6.827  1.00 20.00    +0.189 HD
ATOM     69 H69  LIG A   1      22.924  27.293   4.889  1.00 20.00    +0.157 HD
ATOM     70 H70  LIG A   1      23.924  26.849   6.181  1.00 20.00    +0.157 HD
ATOM     71 H71  LIG A   1      22.730  22.696   7.173  1.00 20.00    +0.064 H 
ATOM     72 H72  LIG A   1      21.881  20.485   7.756  1.00 20.00    +0.063 H 
ATOM     73 H73  LIG A   1      19.938  15.323   6.776  1.00 20.00    +0.047 H 
ATOM     74 H74  LIG A   1      19.460  18.947   5.541  1.00 20.00    +0.296 HD
ATOM     75 H75  LIG A   1      17.486  16.888   7.791  1.00 20.00    +0.028 H 
ATOM     76 H76  LIG A   1      17.609  16.015   6.279  1.00 20.00    +0.028 H 
ATOM     77 H77  LIG A   1      18.341  13.971   7.882  1.00 20.00    +0.029 H 
ATOM     78 H78  LIG A   1      16.702  14.318   7.377  1.00 20.00    +0.029 H 
ATOM     79 H79  LIG A   1      17.182  15.808   9.840  1.00 20.00    +0.050 H 
ATOM     80 H80  LIG A   1      15.935  14.619   9.453  1.00 20.00    +0.050 H 
ATOM     81 H81  LIG A   1      17.124  14.631  12.225  1.00 20.00    +0.082 H 
ATOM     82 H82  LIG A   1      19.416  14.601  13.132  1.00 20.00    +0.064 H 
ATOM     83 H83  LIG A   1      18.191  10.484  10.226  1.00 20.00    +0.057 H 
ATOM     84 H84  LIG A   1      17.171  11.833  12.594  1.00 20.00    +0.119 HD
ATOM     85 H85  LIG A   1      16.372  10.816  11.602  1.00 20.00    +0.119 HD
ATOM     86 H86  LIG A   1      21.896  19.695   8.232  1.00 20.00    +0.189 HD
ATOM     87 H87  LIG A   1      21.394  23.033   8.256  1.00 20.00    +0.157 HD
ATOM     88 H88  LIG A   1      19.783  22.925   7.735  1.00 20.00    +0.157 HD
ATOM     89 H89  LIG A   1      18.596  20.744   8.076  1.00 20.00    +0.058 H 
ATOM     90 H90  LIG A   1      19.597  19.929   6.840  1.00 20.00    +0.058 H 
ATOM     91 H91  LIG A   1      19.968  19.208   9.712  1.00 20.00    +0.163 HD
ATOM     92 H92  LIG A   1      18.138  17.150  10.284  1.00 20.00    +0.057 H 
ATOM     93 H93  LIG A   1      17.918  15.056   9.345  1.00 20.00    +0.029 H 
ATOM     94 H94  LIG A   1      19.183  15.316   8.136  1.00 20.00    +0.029 H 
ATOM     95 H95  LIG A   1      20.804  14.438   9.477  1.00 20.00    +0.028 H 
ATOM     96 H96  LIG A   1      19.509  13.816  10.511  1.00 20.00    +0.028 H 
ATOM     97 H97  LIG A   1      19.621  15.724  11.972  1.00 20.00    +0.043 H 
ATOM     98 H98  LIG A   1      21.329  15.556  11.526  1.00 20.00    +0.043 H 
ATOM     99 H99  LIG A   1      21.025  17.070   9.776  1.00 20.00    +0.123 HD
ENDROOT
TORSDOF 0
                                                                                                      
ENDMDL
