ROOT
ATOM      1 C1   LIG A   1      -2.415  -1.134   0.833  1.00 20.00    -0.044 C 
ATOM      2 C2   LIG A   1      -1.210  -0.536   0.049  1.00 20.00    +0.047 C 
ATOM      3 C3   LIG A   1      -1.303  -1.072  -1.401  1.00 20.00    -0.044 C 
ATOM      4 C4   LIG A   1      -1.436   1.008   0.041  1.00 20.00    -0.006 C 
ATOM      5 C5   LIG A   1      -0.156   1.831   0.187  1.00 20.00    +0.058 C 
ATOM      6 O6   LIG A   1      -0.354   3.131  -0.388  1.00 20.00    -0.393 OA
ATOM      7 C7   LIG A   1       1.019   1.147  -0.485  1.00 20.00    -0.006 C 
ATOM      8 C8   LIG A   1       1.318  -0.223   0.181  1.00 20.00    +0.047 C 
ATOM      9 C9   LIG A   1       2.102  -1.073  -0.854  1.00 20.00    -0.044 C 
ATOM     10 C10  LIG A   1       2.268   0.032   1.382  1.00 20.00    -0.044 C 
ATOM     11 N11  LIG A   1       0.070  -0.817   0.735  1.00 20.00    -0.144 NA
ATOM     12 O12  LIG A   1       0.239  -2.224   0.962  1.00 20.00    -0.120 OA
ATOM     13 N13  LIG A   1     -10.699   1.282   0.564  1.00 20.00    -0.289 NA
ATOM     14 C14  LIG A   1     -11.151   0.071   0.599  1.00 20.00    +0.092 C 
ATOM     15 N15  LIG A   1     -12.426  -0.131   1.023  1.00 20.00    -0.388 NA
ATOM     16 C16  LIG A   1     -10.289  -1.109   0.200  1.00 20.00    +0.022 C 
ATOM     17 C17  LIG A   1      -9.740  -0.954  -1.216  1.00 20.00    +0.022 C 
ATOM     18 N18  LIG A   1      -8.706   0.082  -1.283  1.00 20.00    -0.384 NA
ATOM     19 C19  LIG A   1      -7.353  -0.210  -1.103  1.00 20.00    +0.038 A 
ATOM     20 C20  LIG A   1      -6.880  -1.375  -0.486  1.00 20.00    -0.038 A 
ATOM     21 C21  LIG A   1      -5.511  -1.576  -0.266  1.00 20.00    -0.045 A 
ATOM     22 C22  LIG A   1      -4.596  -0.593  -0.639  1.00 20.00    +0.065 A 
ATOM     23 C23  LIG A   1      -3.151  -0.779  -0.415  1.00 20.00    +0.200 C 
ATOM     24 O24  LIG A   1      -2.727  -1.811   0.092  1.00 20.00    -0.288 OA
ATOM     25 C25  LIG A   1      -2.262   0.340  -0.841  1.00 20.00    +0.065 C 
ATOM     26 C26  LIG A   1      -0.799   0.302  -0.659  1.00 20.00    -0.011 A 
ATOM     27 C27  LIG A   1       0.071   0.619  -1.708  1.00 20.00    -0.052 A 
ATOM     28 C28  LIG A   1       1.458   0.594  -1.516  1.00 20.00    -0.038 A 
ATOM     29 C29  LIG A   1       2.022   0.224  -0.287  1.00 20.00    +0.034 A 
ATOM     30 N30  LIG A   1       3.413   0.290  -0.149  1.00 20.00    -0.385 NA
ATOM     31 C31  LIG A   1       4.060  -0.362   0.985  1.00 20.00    +0.016 C 
ATOM     32 C32  LIG A   1       5.581  -0.218   0.889  1.00 20.00    -0.023 C 
ATOM     33 C33  LIG A   1       6.034   1.232   1.094  1.00 20.00    -0.003 C 
ATOM     34 N34  LIG A   1       7.492   1.388   1.133  1.00 20.00    -0.317 NA
ATOM     35 C35  LIG A   1       8.111   1.230  -0.182  1.00 20.00    -0.005 C 
ATOM     36 C36  LIG A   1       9.595   1.608  -0.147  1.00 20.00    -0.039 C 
ATOM     37 C37  LIG A   1      10.480   0.905   0.893  1.00 20.00    -0.040 C 
ATOM     38 C38  LIG A   1      10.425  -0.623   0.877  1.00 20.00    -0.008 C 
ATOM     39 N39  LIG A   1       9.286  -1.139   1.635  1.00 20.00    -0.330 NA
ATOM     40 C40  LIG A   1       1.146  -0.060   0.764  1.00 20.00    -0.038 A 
ATOM     41 C41  LIG A   1      -0.244  -0.038   0.579  1.00 20.00    -0.052 A 
ATOM     42 C42  LIG A   1      -2.856   1.419  -1.375  1.00 20.00    +0.103 C 
ATOM     43 O43  LIG A   1      -4.202   1.599  -1.591  1.00 20.00    -0.463 OA
ATOM     44 C44  LIG A   1      -5.046   0.585  -1.218  1.00 20.00    +0.139 A 
ATOM     45 C45  LIG A   1      -6.413   0.779  -1.437  1.00 20.00    +0.005 A 
ATOM     46 H46  LIG A   1      -3.366  -0.780   0.416  1.00 20.00    +0.025 H 
ATOM     47 H47  LIG A   1      -2.390  -0.837   1.888  1.00 20.00    +0.025 H 
ATOM     48 H48  LIG A   1      -2.437  -2.229   0.789  1.00 20.00    +0.025 H 
ATOM     49 H49  LIG A   1      -1.128  -2.152  -1.450  1.00 20.00    +0.025 H 
ATOM     50 H50  LIG A   1      -2.303  -0.894  -1.815  1.00 20.00    +0.025 H 
ATOM     51 H51  LIG A   1      -0.597  -0.585  -2.077  1.00 20.00    +0.025 H 
ATOM     52 H52  LIG A   1      -1.967   1.307  -0.873  1.00 20.00    +0.031 H 
ATOM     53 H53  LIG A   1      -2.099   1.312   0.862  1.00 20.00    +0.031 H 
ATOM     54 H54  LIG A   1       0.064   1.992   1.249  1.00 20.00    +0.060 H 
ATOM     55 H55  LIG A   1      -1.119   3.508   0.075  1.00 20.00    +0.210 HD
ATOM     56 H56  LIG A   1       0.798   1.037  -1.554  1.00 20.00    +0.031 H 
ATOM     57 H57  LIG A   1       1.898   1.804  -0.450  1.00 20.00    +0.031 H 
ATOM     58 H58  LIG A   1       2.954  -0.506  -1.250  1.00 20.00    +0.025 H 
ATOM     59 H59  LIG A   1       2.512  -1.989  -0.415  1.00 20.00    +0.025 H 
ATOM     60 H60  LIG A   1       1.481  -1.359  -1.708  1.00 20.00    +0.025 H 
ATOM     61 H61  LIG A   1       3.182   0.545   1.059  1.00 20.00    +0.025 H 
ATOM     62 H62  LIG A   1       2.579  -0.903   1.863  1.00 20.00    +0.025 H 
ATOM     63 H63  LIG A   1       1.795   0.658   2.147  1.00 20.00    +0.025 H 
ATOM     64 H64  LIG A   1      -9.719   1.254   0.228  1.00 20.00    +0.189 HD
ATOM     65 H65  LIG A   1     -12.959   0.732   1.063  1.00 20.00    +0.157 HD
ATOM     66 H66  LIG A   1     -12.938  -0.920   0.653  1.00 20.00    +0.157 HD
ATOM     67 H67  LIG A   1      -9.487  -1.204   0.940  1.00 20.00    +0.037 H 
ATOM     68 H68  LIG A   1     -10.897  -2.020   0.252  1.00 20.00    +0.037 H 
ATOM     69 H69  LIG A   1     -10.556  -0.658  -1.887  1.00 20.00    +0.049 H 
ATOM     70 H70  LIG A   1      -9.365  -1.911  -1.596  1.00 20.00    +0.049 H 
ATOM     71 H71  LIG A   1      -8.859   0.735  -2.052  1.00 20.00    +0.160 HD
ATOM     72 H72  LIG A   1      -7.560  -2.155  -0.160  1.00 20.00    +0.064 H 
ATOM     73 H73  LIG A   1      -5.169  -2.496   0.205  1.00 20.00    +0.063 H 
ATOM     74 H74  LIG A   1      -0.313   0.889  -2.688  1.00 20.00    +0.063 H 
ATOM     75 H75  LIG A   1       2.103   0.870  -2.347  1.00 20.00    +0.064 H 
ATOM     76 H76  LIG A   1       3.878   0.101  -1.034  1.00 20.00    +0.160 HD
ATOM     77 H77  LIG A   1       3.719   0.072   1.932  1.00 20.00    +0.049 H 
ATOM     78 H78  LIG A   1       3.810  -1.430   0.986  1.00 20.00    +0.049 H 
ATOM     79 H79  LIG A   1       5.923  -0.595  -0.081  1.00 20.00    +0.030 H 
ATOM     80 H80  LIG A   1       6.036  -0.851   1.661  1.00 20.00    +0.030 H 
ATOM     81 H81  LIG A   1       5.647   1.588   2.056  1.00 20.00    +0.043 H 
ATOM     82 H82  LIG A   1       5.605   1.892   0.330  1.00 20.00    +0.043 H 
ATOM     83 H83  LIG A   1       7.888   0.655   1.732  1.00 20.00    +0.122 HD
ATOM     84 H84  LIG A   1       8.006   0.202  -0.546  1.00 20.00    +0.043 H 
ATOM     85 H85  LIG A   1       7.616   1.883  -0.911  1.00 20.00    +0.043 H 
ATOM     86 H86  LIG A   1      10.014   1.417  -1.143  1.00 20.00    +0.028 H 
ATOM     87 H87  LIG A   1       9.682   2.690   0.013  1.00 20.00    +0.028 H 
ATOM     88 H88  LIG A   1      10.251   1.284   1.897  1.00 20.00    +0.028 H 
ATOM     89 H89  LIG A   1      11.516   1.208   0.694  1.00 20.00    +0.028 H 
ATOM     90 H90  LIG A   1      10.383  -0.993  -0.153  1.00 20.00    +0.043 H 
ATOM     91 H91  LIG A   1      11.341  -1.020   1.328  1.00 20.00    +0.043 H 
ATOM     92 H92  LIG A   1       9.421  -0.912   2.621  1.00 20.00    +0.118 HD
ATOM     93 H93  LIG A   1       9.295  -2.158   1.587  1.00 20.00    +0.118 HD
ATOM     94 H94  LIG A   1       1.517  -0.309   1.753  1.00 20.00    +0.064 H 
ATOM     95 H95  LIG A   1      -0.886  -0.286   1.422  1.00 20.00    +0.063 H 
ATOM     96 H96  LIG A   1      -2.322   2.306  -1.698  1.00 20.00    +0.105 H 
ATOM     97 H97  LIG A   1      -6.744   1.720  -1.870  1.00 20.00    +0.068 H 
ENDROOT
TORSDOF 0
