ROOT
ATOM      1 N1   LIG A   1      -8.305   1.309  -0.594  1.00 20.00    -0.330 NA
ATOM      2 C2   LIG A   1      -7.858   0.153   0.173  1.00 20.00    -0.008 C 
ATOM      3 C3   LIG A   1      -6.561   0.429   0.938  1.00 20.00    -0.040 C 
ATOM      4 C4   LIG A   1      -5.353   0.662   0.024  1.00 20.00    -0.039 C 
ATOM      5 C5   LIG A   1      -4.057   0.957   0.792  1.00 20.00    -0.005 C 
ATOM      6 N6   LIG A   1      -3.604  -0.078   1.723  1.00 20.00    -0.317 NA
ATOM      7 C7   LIG A   1      -3.296  -1.373   1.117  1.00 20.00    -0.003 C 
ATOM      8 C8   LIG A   1      -2.138  -1.364   0.117  1.00 20.00    -0.023 C 
ATOM      9 C9   LIG A   1      -0.830  -0.862   0.734  1.00 20.00    +0.016 C 
ATOM     10 N10  LIG A   1       0.251  -1.010  -0.242  1.00 20.00    -0.385 NA
ATOM     11 C11  LIG A   1       1.537  -0.561   0.073  1.00 20.00    +0.035 A 
ATOM     12 C12  LIG A   1       1.995  -0.370   1.382  1.00 20.00    -0.038 A 
ATOM     13 C13  LIG A   1       3.318   0.005   1.642  1.00 20.00    -0.048 A 
ATOM     14 C14  LIG A   1       4.219   0.170   0.588  1.00 20.00    +0.034 A 
ATOM     15 C15  LIG A   1       3.795  -0.049  -0.717  1.00 20.00    +0.036 A 
ATOM     16 C16  LIG A   1       2.467  -0.426  -0.969  1.00 20.00    -0.027 A 
ATOM     17 C17  LIG A   1       4.736   0.106  -1.845  1.00 20.00    +0.194 C 
ATOM     18 O18  LIG A   1       4.362  -0.076  -2.998  1.00 20.00    -0.289 OA
ATOM     19 C19  LIG A   1       6.135   0.489  -1.566  1.00 20.00    +0.034 A 
ATOM     20 C20  LIG A   1       7.039   0.632  -2.627  1.00 20.00    -0.050 A 
ATOM     21 C21  LIG A   1       8.363   0.995  -2.372  1.00 20.00    -0.061 A 
ATOM     22 C22  LIG A   1       8.787   1.216  -1.062  1.00 20.00    -0.061 A 
ATOM     23 C23  LIG A   1       7.888   1.074  -0.004  1.00 20.00    -0.050 A 
ATOM     24 C24  LIG A   1       6.559   0.710  -0.257  1.00 20.00    +0.034 A 
ATOM     25 C25  LIG A   1       5.615   0.562   0.869  1.00 20.00    +0.194 C 
ATOM     26 O26  LIG A   1       5.984   0.762   2.020  1.00 20.00    -0.289 OA
ATOM     27 N27  LIG A   1       1.887   0.467   0.760  1.00 20.00    -0.330 NA
ATOM     28 C28  LIG A   1       1.048   0.601  -0.430  1.00 20.00    -0.007 C 
ATOM     29 C29  LIG A   1       0.093  -0.584  -0.584  1.00 20.00    -0.029 C 
ATOM     30 C30  LIG A   1      -1.049  -0.598   0.433  1.00 20.00    -0.007 C 
ATOM     31 N31  LIG A   1      -2.033   0.447   0.154  1.00 20.00    -0.330 NA
ATOM     32 H32  LIG A   1      -9.198   1.093  -1.038  1.00 20.00    +0.118 HD
ATOM     33 H33  LIG A   1      -7.655   1.496  -1.355  1.00 20.00    +0.118 HD
ATOM     34 H34  LIG A   1      -7.729  -0.705  -0.496  1.00 20.00    +0.043 H 
ATOM     35 H35  LIG A   1      -8.641  -0.109   0.892  1.00 20.00    +0.043 H 
ATOM     36 H36  LIG A   1      -6.370  -0.434   1.587  1.00 20.00    +0.028 H 
ATOM     37 H37  LIG A   1      -6.698   1.295   1.597  1.00 20.00    +0.028 H 
ATOM     38 H38  LIG A   1      -5.547   1.521  -0.629  1.00 20.00    +0.028 H 
ATOM     39 H39  LIG A   1      -5.215  -0.201  -0.638  1.00 20.00    +0.028 H 
ATOM     40 H40  LIG A   1      -4.201   1.876   1.373  1.00 20.00    +0.043 H 
ATOM     41 H41  LIG A   1      -3.260   1.191   0.077  1.00 20.00    +0.043 H 
ATOM     42 H42  LIG A   1      -4.309  -0.208   2.449  1.00 20.00    +0.122 HD
ATOM     43 H43  LIG A   1      -4.188  -1.799   0.643  1.00 20.00    +0.043 H 
ATOM     44 H44  LIG A   1      -3.038  -2.062   1.931  1.00 20.00    +0.043 H 
ATOM     45 H45  LIG A   1      -1.992  -2.389  -0.250  1.00 20.00    +0.030 H 
ATOM     46 H46  LIG A   1      -2.393  -0.764  -0.765  1.00 20.00    +0.030 H 
ATOM     47 H47  LIG A   1      -0.612  -1.456   1.629  1.00 20.00    +0.049 H 
ATOM     48 H48  LIG A   1      -0.928   0.190   1.023  1.00 20.00    +0.049 H 
ATOM     49 H49  LIG A   1      -0.024  -0.725  -1.180  1.00 20.00    +0.160 HD
ATOM     50 H50  LIG A   1       1.332  -0.510   2.232  1.00 20.00    +0.064 H 
ATOM     51 H51  LIG A   1       3.639   0.157   2.671  1.00 20.00    +0.063 H 
ATOM     52 H52  LIG A   1       2.156  -0.619  -1.994  1.00 20.00    +0.065 H 
ATOM     53 H53  LIG A   1       6.716   0.461  -3.652  1.00 20.00    +0.063 H 
ATOM     54 H54  LIG A   1       9.063   1.105  -3.197  1.00 20.00    +0.062 H 
ATOM     55 H55  LIG A   1       9.818   1.499  -0.864  1.00 20.00    +0.062 H 
ATOM     56 H56  LIG A   1       8.226   1.249   1.016  1.00 20.00    +0.063 H 
ATOM     57 H57  LIG A   1       2.503  -0.338   0.656  1.00 20.00    +0.118 HD
ATOM     58 H58  LIG A   1       2.493   1.283   0.833  1.00 20.00    +0.118 HD
ATOM     59 H59  LIG A   1       0.494   1.544  -0.383  1.00 20.00    +0.043 H 
ATOM     60 H60  LIG A   1       1.701   0.652  -1.309  1.00 20.00    +0.043 H 
ATOM     61 H61  LIG A   1      -0.322  -0.576  -1.600  1.00 20.00    +0.029 H 
ATOM     62 H62  LIG A   1       0.658  -1.522  -0.498  1.00 20.00    +0.029 H 
ATOM     63 H63  LIG A   1      -1.555  -1.569   0.392  1.00 20.00    +0.043 H 
ATOM     64 H64  LIG A   1      -0.665  -0.476   1.451  1.00 20.00    +0.043 H 
ATOM     65 H65  LIG A   1      -2.764   0.412   0.863  1.00 20.00    +0.118 HD
ATOM     66 H66  LIG A   1      -2.490   0.257  -0.737  1.00 20.00    +0.118 HD
ENDROOT
TORSDOF 0
