ROOT
ATOM      1 C1   LIG A   1      -1.957  -1.111   1.702  1.00 20.00    -0.044 C 
ATOM      2 C2   LIG A   1      -1.077  -0.592   0.527  1.00 20.00    +0.047 C 
ATOM      3 C3   LIG A   1      -1.433  -1.447  -0.715  1.00 20.00    -0.044 C 
ATOM      4 C4   LIG A   1      -1.527   0.882   0.289  1.00 20.00    -0.006 C 
ATOM      5 C5   LIG A   1      -0.415   1.823  -0.175  1.00 20.00    +0.058 C 
ATOM      6 O6   LIG A   1      -0.977   2.847  -1.012  1.00 20.00    -0.393 OA
ATOM      7 C7   LIG A   1       0.680   1.092  -0.932  1.00 20.00    -0.006 C 
ATOM      8 C8   LIG A   1       1.335  -0.018  -0.070  1.00 20.00    +0.047 C 
ATOM      9 C9   LIG A   1       2.014  -1.006  -1.057  1.00 20.00    -0.044 C 
ATOM     10 C10  LIG A   1       2.459   0.637   0.775  1.00 20.00    -0.044 C 
ATOM     11 N11  LIG A   1       0.356  -0.593   0.887  1.00 20.00    -0.144 NA
ATOM     12 O12  LIG A   1       0.780  -1.892   1.324  1.00 20.00    -0.120 OA
ATOM     13 C13  LIG A   1      -7.470   2.999   0.163  1.00 20.00    -0.060 C 
ATOM     14 C14  LIG A   1      -6.546   1.866  -0.317  1.00 20.00    -0.016 C 
ATOM     15 C15  LIG A   1      -5.085   2.196   0.069  1.00 20.00    -0.023 C 
ATOM     16 C16  LIG A   1      -4.028   1.606  -0.853  1.00 20.00    -0.046 C 
ATOM     17 C17  LIG A   1      -2.693   1.583  -0.627  1.00 20.00    -0.059 C 
ATOM     18 C18  LIG A   1      -2.190   1.338   0.718  1.00 20.00    -0.054 C 
ATOM     19 C19  LIG A   1      -1.252   0.404   1.014  1.00 20.00    +0.009 C 
ATOM     20 C20  LIG A   1      -0.350  -0.081   0.004  1.00 20.00    +0.131 A 
ATOM     21 C21  LIG A   1      -0.539  -0.990  -1.029  1.00 20.00    -0.015 A 
ATOM     22 C22  LIG A   1       0.699  -1.154  -1.697  1.00 20.00    -0.015 A 
ATOM     23 C23  LIG A   1       1.602  -0.343  -1.045  1.00 20.00    +0.134 A 
ATOM     24 C24  LIG A   1       3.023  -0.053  -1.211  1.00 20.00    +0.017 A 
ATOM     25 C25  LIG A   1       3.827  -0.861  -2.024  1.00 20.00    -0.049 A 
ATOM     26 C26  LIG A   1       5.189  -0.585  -2.186  1.00 20.00    -0.038 A 
ATOM     27 C27  LIG A   1       5.779   0.513  -1.553  1.00 20.00    +0.034 A 
ATOM     28 N28  LIG A   1       7.157   0.769  -1.694  1.00 20.00    -0.385 NA
ATOM     29 C29  LIG A   1       7.993  -0.224  -1.008  1.00 20.00    +0.022 C 
ATOM     30 C30  LIG A   1       9.456  -0.005  -1.380  1.00 20.00    +0.022 C 
ATOM     31 C31  LIG A   1      10.318  -1.022  -0.670  1.00 20.00    +0.092 C 
ATOM     32 N32  LIG A   1      10.420  -2.238  -1.094  1.00 20.00    -0.289 NA
ATOM     33 N33  LIG A   1      10.991  -0.671   0.457  1.00 20.00    -0.388 NA
ATOM     34 C34  LIG A   1       4.981   1.323  -0.741  1.00 20.00    -0.038 A 
ATOM     35 C35  LIG A   1       3.621   1.041  -0.568  1.00 20.00    -0.049 A 
ATOM     36 O36  LIG A   1       0.972   0.297  -0.021  1.00 20.00    -0.456 OA
ATOM     37 C37  LIG A   1      -1.267  -0.199   2.413  1.00 20.00    +0.085 C 
ATOM     38 C38  LIG A   1       0.154  -0.274   2.955  1.00 20.00    +0.311 C 
ATOM     39 O39  LIG A   1       0.806   0.669   3.380  1.00 20.00    -0.252 OA
ATOM     40 O40  LIG A   1       0.706  -1.503   2.908  1.00 20.00    -0.481 OA
ATOM     41 C41  LIG A   1      -2.007  -1.567   2.415  1.00 20.00    -0.034 C 
ATOM     42 C42  LIG A   1      -3.526  -1.465   2.151  1.00 20.00    -0.034 C 
ATOM     43 C43  LIG A   1      -4.017  -1.893   0.739  1.00 20.00    +0.025 C 
ATOM     44 N44  LIG A   1      -4.922  -0.912   0.104  1.00 20.00    -0.318 NA
ATOM     45 C45  LIG A   1      -4.773  -0.665  -1.257  1.00 20.00    +0.007 C 
ATOM     46 C46  LIG A   1      -4.458   0.543  -1.758  1.00 20.00    -0.043 C 
ATOM     47 C47  LIG A   1      -6.057  -0.521   0.823  1.00 20.00    +0.243 C 
ATOM     48 O48  LIG A   1      -6.324  -1.031   1.922  1.00 20.00    -0.273 OA
ATOM     49 C49  LIG A   1      -7.062   0.510   0.233  1.00 20.00    +0.088 C 
ATOM     50 N50  LIG A   1      -7.977  -0.151  -0.730  1.00 20.00    -0.320 NA
ATOM     51 H51  LIG A   1      -3.021  -0.947   1.496  1.00 20.00    +0.025 H 
ATOM     52 H52  LIG A   1      -1.720  -0.589   2.637  1.00 20.00    +0.025 H 
ATOM     53 H53  LIG A   1      -1.829  -2.186   1.874  1.00 20.00    +0.025 H 
ATOM     54 H54  LIG A   1      -1.140  -2.494  -0.588  1.00 20.00    +0.025 H 
ATOM     55 H55  LIG A   1      -2.516  -1.441  -0.891  1.00 20.00    +0.025 H 
ATOM     56 H56  LIG A   1      -0.969  -1.078  -1.632  1.00 20.00    +0.025 H 
ATOM     57 H57  LIG A   1      -2.365   0.907  -0.419  1.00 20.00    +0.031 H 
ATOM     58 H58  LIG A   1      -1.932   1.315   1.215  1.00 20.00    +0.031 H 
ATOM     59 H59  LIG A   1       0.015   2.337   0.692  1.00 20.00    +0.060 H 
ATOM     60 H60  LIG A   1      -1.300   2.393  -1.809  1.00 20.00    +0.210 HD
ATOM     61 H61  LIG A   1       0.257   0.681  -1.858  1.00 20.00    +0.031 H 
ATOM     62 H62  LIG A   1       1.430   1.818  -1.275  1.00 20.00    +0.031 H 
ATOM     63 H63  LIG A   1       2.650  -0.466  -1.768  1.00 20.00    +0.025 H 
ATOM     64 H64  LIG A   1       2.662  -1.726  -0.545  1.00 20.00    +0.025 H 
ATOM     65 H65  LIG A   1       1.281  -1.570  -1.644  1.00 20.00    +0.025 H 
ATOM     66 H66  LIG A   1       3.186   1.149   0.135  1.00 20.00    +0.025 H 
ATOM     67 H67  LIG A   1       3.013  -0.106   1.360  1.00 20.00    +0.025 H 
ATOM     68 H68  LIG A   1       2.058   1.379   1.476  1.00 20.00    +0.025 H 
ATOM     69 H69  LIG A   1      -7.418   3.120   1.250  1.00 20.00    +0.023 H 
ATOM     70 H70  LIG A   1      -7.186   3.952  -0.297  1.00 20.00    +0.023 H 
ATOM     71 H71  LIG A   1      -8.512   2.799  -0.112  1.00 20.00    +0.023 H 
ATOM     72 H72  LIG A   1      -6.635   1.874  -1.413  1.00 20.00    +0.032 H 
ATOM     73 H73  LIG A   1      -4.946   3.284   0.019  1.00 20.00    +0.032 H 
ATOM     74 H74  LIG A   1      -4.917   1.920   1.116  1.00 20.00    +0.032 H 
ATOM     75 H75  LIG A   1      -2.060   1.183  -1.419  1.00 20.00    +0.063 H 
ATOM     76 H76  LIG A   1      -2.815   1.708   1.528  1.00 20.00    +0.063 H 
ATOM     77 H77  LIG A   1      -1.471  -1.475  -1.279  1.00 20.00    +0.066 H 
ATOM     78 H78  LIG A   1       0.902  -1.783  -2.551  1.00 20.00    +0.066 H 
ATOM     79 H79  LIG A   1       3.409  -1.720  -2.543  1.00 20.00    +0.063 H 
ATOM     80 H80  LIG A   1       5.788  -1.225  -2.829  1.00 20.00    +0.064 H 
ATOM     81 H81  LIG A   1       7.371   1.710  -1.369  1.00 20.00    +0.160 HD
ATOM     82 H82  LIG A   1       7.701  -1.246  -1.281  1.00 20.00    +0.049 H 
ATOM     83 H83  LIG A   1       7.867  -0.125   0.078  1.00 20.00    +0.049 H 
ATOM     84 H84  LIG A   1       9.779   1.006  -1.105  1.00 20.00    +0.037 H 
ATOM     85 H85  LIG A   1       9.598  -0.111  -2.462  1.00 20.00    +0.037 H 
ATOM     86 H86  LIG A   1       9.881  -2.368  -1.958  1.00 20.00    +0.189 HD
ATOM     87 H87  LIG A   1      10.629   0.082   1.027  1.00 20.00    +0.157 HD
ATOM     88 H88  LIG A   1      11.328  -1.473   0.980  1.00 20.00    +0.157 HD
ATOM     89 H89  LIG A   1       5.405   2.181  -0.228  1.00 20.00    +0.064 H 
ATOM     90 H90  LIG A   1       3.027   1.693   0.071  1.00 20.00    +0.063 H 
ATOM     91 H91  LIG A   1      -1.799   0.455   3.119  1.00 20.00    +0.047 H 
ATOM     92 H92  LIG A   1       1.630  -1.349   3.197  1.00 20.00    +0.296 HD
ATOM     93 H93  LIG A   1      -1.543  -2.277   1.720  1.00 20.00    +0.028 H 
ATOM     94 H94  LIG A   1      -1.878  -2.005   3.416  1.00 20.00    +0.028 H 
ATOM     95 H95  LIG A   1      -3.869  -0.457   2.411  1.00 20.00    +0.029 H 
ATOM     96 H96  LIG A   1      -4.019  -2.137   2.868  1.00 20.00    +0.029 H 
ATOM     97 H97  LIG A   1      -3.166  -2.068   0.076  1.00 20.00    +0.050 H 
ATOM     98 H98  LIG A   1      -4.570  -2.837   0.820  1.00 20.00    +0.050 H 
ATOM     99 H99  LIG A   1      -4.843  -1.536  -1.904  1.00 20.00    +0.082 H 
ATOM    100 H100 LIG A   1      -4.322   0.695  -2.826  1.00 20.00    +0.064 H 
ATOM    101 H101 LIG A   1      -7.699   0.751   1.097  1.00 20.00    +0.057 H 
ATOM    102 H102 LIG A   1      -7.428  -0.493  -1.515  1.00 20.00    +0.119 HD
ATOM    103 H103 LIG A   1      -8.369  -0.979  -0.275  1.00 20.00    +0.119 HD
ENDROOT
TORSDOF 0
