ROOT
ATOM      1 N1   LIG A   1       5.006   1.507  -1.750  1.00 20.00    -0.330 NA
ATOM      2 C2   LIG A   1       5.928   1.053  -0.718  1.00 20.00    -0.008 C 
ATOM      3 C3   LIG A   1       5.877  -0.465  -0.534  1.00 20.00    -0.040 C 
ATOM      4 C4   LIG A   1       4.500  -1.039  -0.176  1.00 20.00    -0.039 C 
ATOM      5 C5   LIG A   1       3.920  -0.454   1.115  1.00 20.00    -0.005 C 
ATOM      6 N6   LIG A   1       2.732  -1.177   1.586  1.00 20.00    -0.317 NA
ATOM      7 C7   LIG A   1       1.556  -0.921   0.744  1.00 20.00    -0.003 C 
ATOM      8 C8   LIG A   1       0.343  -1.648   1.332  1.00 20.00    -0.023 C 
ATOM      9 C9   LIG A   1      -0.903  -1.485   0.460  1.00 20.00    +0.017 C 
ATOM     10 N10  LIG A   1      -1.377  -0.103   0.515  1.00 20.00    -0.370 NA
ATOM     11 C11  LIG A   1      -2.558   0.119  -0.199  1.00 20.00    +0.126 A 
ATOM     12 C12  LIG A   1      -2.641  -0.087  -1.568  1.00 20.00    -0.019 A 
ATOM     13 C13  LIG A   1      -3.845   0.168  -2.215  1.00 20.00    -0.049 A 
ATOM     14 C14  LIG A   1      -4.939   0.631  -1.479  1.00 20.00    +0.000 A 
ATOM     15 C15  LIG A   1      -6.178   0.904  -2.084  1.00 20.00    -0.053 A 
ATOM     16 C16  LIG A   1      -7.246   1.369  -1.319  1.00 20.00    -0.062 A 
ATOM     17 C17  LIG A   1      -7.079   1.562   0.048  1.00 20.00    -0.060 A 
ATOM     18 C18  LIG A   1      -5.843   1.289   0.644  1.00 20.00    -0.036 A 
ATOM     19 C19  LIG A   1      -4.762   0.824  -0.094  1.00 20.00    +0.073 A 
ATOM     20 N20  LIG A   1      -3.595   0.575   0.528  1.00 20.00    -0.231 NA
ATOM     21 N21  LIG A   1       1.881   0.383   0.818  1.00 20.00    -0.330 NA
ATOM     22 C22  LIG A   1       1.061   0.618  -0.370  1.00 20.00    -0.007 C 
ATOM     23 C23  LIG A   1       0.095  -0.540  -0.626  1.00 20.00    -0.029 C 
ATOM     24 C24  LIG A   1      -1.062  -0.615   0.373  1.00 20.00    -0.007 C 
ATOM     25 N25  LIG A   1      -2.029   0.460   0.161  1.00 20.00    -0.330 NA
ATOM     26 H26  LIG A   1       5.237   1.062  -2.638  1.00 20.00    +0.118 HD
ATOM     27 H27  LIG A   1       5.123   2.509  -1.894  1.00 20.00    +0.118 HD
ATOM     28 H28  LIG A   1       6.947   1.344  -0.996  1.00 20.00    +0.043 H 
ATOM     29 H29  LIG A   1       5.698   1.561   0.224  1.00 20.00    +0.043 H 
ATOM     30 H30  LIG A   1       6.225  -0.951  -1.454  1.00 20.00    +0.028 H 
ATOM     31 H31  LIG A   1       6.593  -0.743   0.249  1.00 20.00    +0.028 H 
ATOM     32 H32  LIG A   1       3.812  -0.878  -1.013  1.00 20.00    +0.028 H 
ATOM     33 H33  LIG A   1       4.607  -2.126  -0.066  1.00 20.00    +0.028 H 
ATOM     34 H34  LIG A   1       4.679  -0.530   1.902  1.00 20.00    +0.043 H 
ATOM     35 H35  LIG A   1       3.691   0.611   1.001  1.00 20.00    +0.043 H 
ATOM     36 H36  LIG A   1       2.522  -0.860   2.533  1.00 20.00    +0.122 HD
ATOM     37 H37  LIG A   1       1.357   0.155   0.692  1.00 20.00    +0.043 H 
ATOM     38 H38  LIG A   1       1.727  -1.288  -0.273  1.00 20.00    +0.043 H 
ATOM     39 H39  LIG A   1       0.568  -2.719   1.415  1.00 20.00    +0.030 H 
ATOM     40 H40  LIG A   1       0.139  -1.283   2.347  1.00 20.00    +0.030 H 
ATOM     41 H41  LIG A   1      -0.666  -1.785  -0.568  1.00 20.00    +0.049 H 
ATOM     42 H42  LIG A   1      -1.684  -2.158   0.835  1.00 20.00    +0.049 H 
ATOM     43 H43  LIG A   1      -1.633   0.158   1.469  1.00 20.00    +0.162 HD
ATOM     44 H44  LIG A   1      -1.778  -0.419  -2.133  1.00 20.00    +0.066 H 
ATOM     45 H45  LIG A   1      -3.918   0.013  -3.288  1.00 20.00    +0.063 H 
ATOM     46 H46  LIG A   1      -6.315   0.758  -3.152  1.00 20.00    +0.063 H 
ATOM     47 H47  LIG A   1      -8.204   1.580  -1.788  1.00 20.00    +0.062 H 
ATOM     48 H48  LIG A   1      -7.904   1.925   0.655  1.00 20.00    +0.062 H 
ATOM     49 H49  LIG A   1      -5.720   1.443   1.713  1.00 20.00    +0.065 H 
ATOM     50 H50  LIG A   1       2.489  -0.419   0.661  1.00 20.00    +0.118 HD
ATOM     51 H51  LIG A   1       2.496   1.184   0.960  1.00 20.00    +0.118 HD
ATOM     52 H52  LIG A   1       0.518   1.562  -0.258  1.00 20.00    +0.043 H 
ATOM     53 H53  LIG A   1       1.727   0.728  -1.233  1.00 20.00    +0.043 H 
ATOM     54 H54  LIG A   1      -0.307  -0.449  -1.643  1.00 20.00    +0.029 H 
ATOM     55 H55  LIG A   1       0.646  -1.488  -0.603  1.00 20.00    +0.029 H 
ATOM     56 H56  LIG A   1      -1.579  -1.574   0.252  1.00 20.00    +0.043 H 
ATOM     57 H57  LIG A   1      -0.691  -0.576   1.402  1.00 20.00    +0.043 H 
ATOM     58 H58  LIG A   1      -2.770   0.382   0.856  1.00 20.00    +0.118 HD
ATOM     59 H59  LIG A   1      -2.476   0.344  -0.747  1.00 20.00    +0.118 HD
ENDROOT
TORSDOF 0
