ROOT
ATOM      1 C1   LIG A   1      -2.414  -1.134   0.834  1.00 20.00    -0.044 C 
ATOM      2 C2   LIG A   1      -1.208  -0.538   0.049  1.00 20.00    +0.047 C 
ATOM      3 C3   LIG A   1      -1.296  -1.085  -1.397  1.00 20.00    -0.044 C 
ATOM      4 C4   LIG A   1      -1.438   1.004   0.029  1.00 20.00    -0.006 C 
ATOM      5 C5   LIG A   1      -0.161   1.832   0.174  1.00 20.00    +0.058 C 
ATOM      6 O6   LIG A   1      -0.360   3.127  -0.412  1.00 20.00    -0.393 OA
ATOM      7 C7   LIG A   1       1.017   1.146  -0.490  1.00 20.00    -0.006 C 
ATOM      8 C8   LIG A   1       1.318  -0.219   0.187  1.00 20.00    +0.047 C 
ATOM      9 C9   LIG A   1       2.107  -1.074  -0.840  1.00 20.00    -0.044 C 
ATOM     10 C10  LIG A   1       2.264   0.048   1.389  1.00 20.00    -0.044 C 
ATOM     11 N11  LIG A   1       0.070  -0.812   0.741  1.00 20.00    -0.144 NA
ATOM     12 O12  LIG A   1       0.242  -2.216   0.980  1.00 20.00    -0.120 OA
ATOM     13 N13  LIG A   1      -8.304   1.328  -0.575  1.00 20.00    -0.330 NA
ATOM     14 C14  LIG A   1      -7.858   0.162   0.177  1.00 20.00    -0.008 C 
ATOM     15 C15  LIG A   1      -6.560   0.426   0.944  1.00 20.00    -0.040 C 
ATOM     16 C16  LIG A   1      -5.352   0.669   0.033  1.00 20.00    -0.039 C 
ATOM     17 C17  LIG A   1      -4.056   0.952   0.804  1.00 20.00    -0.005 C 
ATOM     18 N18  LIG A   1      -3.603  -0.095   1.722  1.00 20.00    -0.317 NA
ATOM     19 C19  LIG A   1      -3.298  -1.383   1.099  1.00 20.00    -0.003 C 
ATOM     20 C20  LIG A   1      -2.140  -1.362   0.099  1.00 20.00    -0.023 C 
ATOM     21 C21  LIG A   1      -0.831  -0.871   0.722  1.00 20.00    +0.016 C 
ATOM     22 N22  LIG A   1       0.249  -1.007  -0.256  1.00 20.00    -0.385 NA
ATOM     23 C23  LIG A   1       1.536  -0.564   0.064  1.00 20.00    +0.035 A 
ATOM     24 C24  LIG A   1       1.995  -0.391   1.375  1.00 20.00    -0.038 A 
ATOM     25 C25  LIG A   1       3.319  -0.020   1.639  1.00 20.00    -0.048 A 
ATOM     26 C26  LIG A   1       4.220   0.157   0.587  1.00 20.00    +0.034 A 
ATOM     27 C27  LIG A   1       3.795  -0.046  -0.721  1.00 20.00    +0.036 A 
ATOM     28 C28  LIG A   1       2.466  -0.417  -0.976  1.00 20.00    -0.027 A 
ATOM     29 C29  LIG A   1       4.735   0.123  -1.847  1.00 20.00    +0.194 C 
ATOM     30 O30  LIG A   1       4.360  -0.044  -3.002  1.00 20.00    -0.289 OA
ATOM     31 C31  LIG A   1       6.135   0.500  -1.564  1.00 20.00    +0.034 A 
ATOM     32 C32  LIG A   1       7.039   0.655  -2.623  1.00 20.00    -0.050 A 
ATOM     33 C33  LIG A   1       8.363   1.013  -2.364  1.00 20.00    -0.061 A 
ATOM     34 C34  LIG A   1       8.788   1.217  -1.052  1.00 20.00    -0.061 A 
ATOM     35 C35  LIG A   1       7.889   1.063   0.005  1.00 20.00    -0.050 A 
ATOM     36 C36  LIG A   1       6.559   0.704  -0.252  1.00 20.00    +0.034 A 
ATOM     37 C37  LIG A   1       5.616   0.543   0.873  1.00 20.00    +0.194 C 
ATOM     38 O38  LIG A   1       5.986   0.728   2.026  1.00 20.00    -0.289 OA
ATOM     39 H39  LIG A   1      -3.365  -0.785   0.411  1.00 20.00    +0.025 H 
ATOM     40 H40  LIG A   1      -2.394  -0.829   1.887  1.00 20.00    +0.025 H 
ATOM     41 H41  LIG A   1      -2.434  -2.229   0.799  1.00 20.00    +0.025 H 
ATOM     42 H42  LIG A   1      -1.118  -2.165  -1.438  1.00 20.00    +0.025 H 
ATOM     43 H43  LIG A   1      -2.295  -0.913  -1.815  1.00 20.00    +0.025 H 
ATOM     44 H44  LIG A   1      -0.589  -0.601  -2.075  1.00 20.00    +0.025 H 
ATOM     45 H45  LIG A   1      -1.967   1.296  -0.889  1.00 20.00    +0.031 H 
ATOM     46 H46  LIG A   1      -2.106   1.313   0.846  1.00 20.00    +0.031 H 
ATOM     47 H47  LIG A   1       0.055   2.001   1.235  1.00 20.00    +0.060 H 
ATOM     48 H48  LIG A   1      -1.130   3.505   0.045  1.00 20.00    +0.210 HD
ATOM     49 H49  LIG A   1       0.801   1.027  -1.559  1.00 20.00    +0.031 H 
ATOM     50 H50  LIG A   1       1.895   1.806  -0.457  1.00 20.00    +0.031 H 
ATOM     51 H51  LIG A   1       2.960  -0.509  -1.236  1.00 20.00    +0.025 H 
ATOM     52 H52  LIG A   1       2.517  -1.986  -0.393  1.00 20.00    +0.025 H 
ATOM     53 H53  LIG A   1       1.491  -1.366  -1.695  1.00 20.00    +0.025 H 
ATOM     54 H54  LIG A   1       3.178   0.561   1.065  1.00 20.00    +0.025 H 
ATOM     55 H55  LIG A   1       2.575  -0.883   1.878  1.00 20.00    +0.025 H 
ATOM     56 H56  LIG A   1       1.787   0.677   2.149  1.00 20.00    +0.025 H 
ATOM     57 H57  LIG A   1      -9.197   1.120  -1.021  1.00 20.00    +0.118 HD
ATOM     58 H58  LIG A   1      -7.653   1.524  -1.334  1.00 20.00    +0.118 HD
ATOM     59 H59  LIG A   1      -7.731  -0.688  -0.503  1.00 20.00    +0.043 H 
ATOM     60 H60  LIG A   1      -8.641  -0.108   0.893  1.00 20.00    +0.043 H 
ATOM     61 H61  LIG A   1      -6.370  -0.445   1.583  1.00 20.00    +0.028 H 
ATOM     62 H62  LIG A   1      -6.696   1.284   1.615  1.00 20.00    +0.028 H 
ATOM     63 H63  LIG A   1      -5.545   1.536  -0.609  1.00 20.00    +0.028 H 
ATOM     64 H64  LIG A   1      -5.215  -0.186  -0.639  1.00 20.00    +0.028 H 
ATOM     65 H65  LIG A   1      -4.198   1.864   1.397  1.00 20.00    +0.043 H 
ATOM     66 H66  LIG A   1      -3.259   1.195   0.093  1.00 20.00    +0.043 H 
ATOM     67 H67  LIG A   1      -4.309  -0.233   2.446  1.00 20.00    +0.122 HD
ATOM     68 H68  LIG A   1      -4.190  -1.801   0.620  1.00 20.00    +0.043 H 
ATOM     69 H69  LIG A   1      -3.040  -2.082   1.904  1.00 20.00    +0.043 H 
ATOM     70 H70  LIG A   1      -1.996  -2.382  -0.281  1.00 20.00    +0.030 H 
ATOM     71 H71  LIG A   1      -2.394  -0.751  -0.775  1.00 20.00    +0.030 H 
ATOM     72 H72  LIG A   1      -0.613  -1.476   1.609  1.00 20.00    +0.049 H 
ATOM     73 H73  LIG A   1      -0.927   0.178   1.025  1.00 20.00    +0.049 H 
ATOM     74 H74  LIG A   1      -0.026  -0.709  -1.190  1.00 20.00    +0.160 HD
ATOM     75 H75  LIG A   1       1.332  -0.540   2.224  1.00 20.00    +0.064 H 
ATOM     76 H76  LIG A   1       3.640   0.118   2.670  1.00 20.00    +0.063 H 
ATOM     77 H77  LIG A   1       2.155  -0.596  -2.004  1.00 20.00    +0.065 H 
ATOM     78 H78  LIG A   1       6.715   0.498  -3.650  1.00 20.00    +0.063 H 
ATOM     79 H79  LIG A   1       9.063   1.133  -3.188  1.00 20.00    +0.062 H 
ATOM     80 H80  LIG A   1       9.820   1.496  -0.850  1.00 20.00    +0.062 H 
ATOM     81 H81  LIG A   1       8.228   1.224   1.027  1.00 20.00    +0.063 H 
ENDROOT
TORSDOF 0
