ROOT
ATOM      1 N1   LIG A   1      -7.501  -1.318  -3.166  1.00 20.00    -0.289 NA
ATOM      2 C2   LIG A   1      -8.568  -0.911  -2.563  1.00 20.00    +0.092 C 
ATOM      3 N3   LIG A   1      -8.896   0.411  -2.515  1.00 20.00    -0.388 NA
ATOM      4 C4   LIG A   1      -9.464  -1.938  -1.902  1.00 20.00    +0.022 C 
ATOM      5 C5   LIG A   1      -9.376  -1.898  -0.378  1.00 20.00    +0.022 C 
ATOM      6 N6   LIG A   1      -8.035  -2.249   0.105  1.00 20.00    -0.384 NA
ATOM      7 C7   LIG A   1      -7.207  -1.205   0.544  1.00 20.00    +0.038 A 
ATOM      8 C8   LIG A   1      -7.651  -0.229   1.448  1.00 20.00    -0.038 A 
ATOM      9 C9   LIG A   1      -6.797   0.786   1.890  1.00 20.00    -0.045 A 
ATOM     10 C10  LIG A   1      -5.476   0.816   1.444  1.00 20.00    +0.065 A 
ATOM     11 C11  LIG A   1      -4.551   1.871   1.882  1.00 20.00    +0.193 C 
ATOM     12 O12  LIG A   1      -4.898   2.778   2.627  1.00 20.00    -0.289 OA
ATOM     13 C13  LIG A   1      -3.173   1.790   1.374  1.00 20.00    +0.030 C 
ATOM     14 C14  LIG A   1      -2.835   0.787   0.549  1.00 20.00    +0.138 C 
ATOM     15 C15  LIG A   1      -1.470   0.658   0.001  1.00 20.00    +0.017 A 
ATOM     16 C16  LIG A   1      -1.280   0.263  -1.327  1.00 20.00    -0.049 A 
ATOM     17 C17  LIG A   1       0.010   0.121  -1.855  1.00 20.00    -0.038 A 
ATOM     18 C18  LIG A   1       1.151   0.382  -1.086  1.00 20.00    +0.034 A 
ATOM     19 N19  LIG A   1       2.401   0.150  -1.658  1.00 20.00    -0.385 NA
ATOM     20 C20  LIG A   1       3.638   0.626  -1.040  1.00 20.00    +0.016 C 
ATOM     21 C21  LIG A   1       4.240  -0.467  -0.156  1.00 20.00    -0.023 C 
ATOM     22 C22  LIG A   1       5.492   0.000   0.590  1.00 20.00    -0.003 C 
ATOM     23 N23  LIG A   1       6.568   0.336  -0.342  1.00 20.00    -0.317 NA
ATOM     24 C24  LIG A   1       7.762   0.861   0.325  1.00 20.00    -0.005 C 
ATOM     25 C25  LIG A   1       8.601  -0.228   1.001  1.00 20.00    -0.039 C 
ATOM     26 C26  LIG A   1       9.849   0.320   1.704  1.00 20.00    -0.040 C 
ATOM     27 C27  LIG A   1      10.884   0.895   0.737  1.00 20.00    -0.008 C 
ATOM     28 N28  LIG A   1      12.087   1.311   1.450  1.00 20.00    -0.330 NA
ATOM     29 C29  LIG A   1       0.954   0.730   0.253  1.00 20.00    -0.038 A 
ATOM     30 C30  LIG A   1      -0.334   0.876   0.789  1.00 20.00    -0.049 A 
ATOM     31 O31  LIG A   1      -3.715  -0.193   0.115  1.00 20.00    -0.456 OA
ATOM     32 C32  LIG A   1      -5.007  -0.163   0.576  1.00 20.00    +0.140 A 
ATOM     33 C33  LIG A   1      -5.865  -1.173   0.137  1.00 20.00    +0.005 A 
ATOM     34 O34  LIG A   1       1.612  -1.428  -0.987  1.00 20.00    -0.504 OA
ATOM     35 C35  LIG A   1       0.591  -0.681  -0.473  1.00 20.00    +0.157 A 
ATOM     36 C36  LIG A   1      -0.705  -1.169  -0.555  1.00 20.00    -0.016 A 
ATOM     37 C37  LIG A   1      -1.745  -0.442   0.029  1.00 20.00    -0.058 A 
ATOM     38 C38  LIG A   1      -1.478   0.763   0.687  1.00 20.00    -0.058 A 
ATOM     39 C39  LIG A   1      -0.173   1.255   0.751  1.00 20.00    -0.016 A 
ATOM     40 C40  LIG A   1       0.852   0.535   0.153  1.00 20.00    +0.157 A 
ATOM     41 O41  LIG A   1       2.115   1.053   0.160  1.00 20.00    -0.504 OA
ATOM     42 H42  LIG A   1      -7.020  -0.519  -3.585  1.00 20.00    +0.189 HD
ATOM     43 H43  LIG A   1      -8.130   1.064  -2.634  1.00 20.00    +0.157 HD
ATOM     44 H44  LIG A   1      -9.532   0.700  -1.779  1.00 20.00    +0.157 HD
ATOM     45 H45  LIG A   1      -9.197  -2.935  -2.272  1.00 20.00    +0.037 H 
ATOM     46 H46  LIG A   1     -10.496  -1.738  -2.214  1.00 20.00    +0.037 H 
ATOM     47 H47  LIG A   1      -9.722  -0.926  -0.011  1.00 20.00    +0.049 H 
ATOM     48 H48  LIG A   1     -10.072  -2.643   0.024  1.00 20.00    +0.049 H 
ATOM     49 H49  LIG A   1      -7.548  -2.837  -0.575  1.00 20.00    +0.160 HD
ATOM     50 H50  LIG A   1      -8.663  -0.265   1.843  1.00 20.00    +0.064 H 
ATOM     51 H51  LIG A   1      -7.159   1.536   2.590  1.00 20.00    +0.063 H 
ATOM     52 H52  LIG A   1      -2.493   2.569   1.693  1.00 20.00    +0.070 H 
ATOM     53 H53  LIG A   1      -2.133   0.055  -1.970  1.00 20.00    +0.063 H 
ATOM     54 H54  LIG A   1       0.114  -0.208  -2.886  1.00 20.00    +0.064 H 
ATOM     55 H55  LIG A   1       2.393   0.274  -2.667  1.00 20.00    +0.160 HD
ATOM     56 H56  LIG A   1       4.340   0.862  -1.849  1.00 20.00    +0.049 H 
ATOM     57 H57  LIG A   1       3.484   1.560  -0.489  1.00 20.00    +0.049 H 
ATOM     58 H58  LIG A   1       4.475  -1.349  -0.767  1.00 20.00    +0.030 H 
ATOM     59 H59  LIG A   1       3.504  -0.802   0.584  1.00 20.00    +0.030 H 
ATOM     60 H60  LIG A   1       5.806  -0.803   1.265  1.00 20.00    +0.043 H 
ATOM     61 H61  LIG A   1       5.237   0.872   1.205  1.00 20.00    +0.043 H 
ATOM     62 H62  LIG A   1       6.816  -0.486  -0.894  1.00 20.00    +0.122 HD
ATOM     63 H63  LIG A   1       8.361   1.351  -0.450  1.00 20.00    +0.043 H 
ATOM     64 H64  LIG A   1       7.489   1.644   1.043  1.00 20.00    +0.043 H 
ATOM     65 H65  LIG A   1       7.999  -0.747   1.755  1.00 20.00    +0.028 H 
ATOM     66 H66  LIG A   1       8.901  -0.982   0.262  1.00 20.00    +0.028 H 
ATOM     67 H67  LIG A   1      10.304  -0.501   2.273  1.00 20.00    +0.028 H 
ATOM     68 H68  LIG A   1       9.551   1.083   2.434  1.00 20.00    +0.028 H 
ATOM     69 H69  LIG A   1      10.483   1.764   0.207  1.00 20.00    +0.043 H 
ATOM     70 H70  LIG A   1      11.158   0.148  -0.015  1.00 20.00    +0.043 H 
ATOM     71 H71  LIG A   1      11.845   1.997   2.164  1.00 20.00    +0.118 HD
ATOM     72 H72  LIG A   1      12.483   0.515   1.950  1.00 20.00    +0.118 HD
ATOM     73 H73  LIG A   1       1.797   0.889   0.918  1.00 20.00    +0.064 H 
ATOM     74 H74  LIG A   1      -0.428   1.141   1.840  1.00 20.00    +0.063 H 
ATOM     75 H75  LIG A   1      -5.483  -1.930  -0.543  1.00 20.00    +0.068 H 
ATOM     76 H76  LIG A   1       2.360  -1.314  -0.371  1.00 20.00    +0.293 HD
ATOM     77 H77  LIG A   1      -0.905  -2.113  -1.052  1.00 20.00    +0.066 H 
ATOM     78 H78  LIG A   1      -2.764  -0.818  -0.023  1.00 20.00    +0.062 H 
ATOM     79 H79  LIG A   1      -2.290   1.323   1.145  1.00 20.00    +0.062 H 
ATOM     80 H80  LIG A   1       0.036   2.198   1.246  1.00 20.00    +0.066 H 
ATOM     81 H81  LIG A   1       2.495   0.836  -0.711  1.00 20.00    +0.293 HD
ENDROOT
TORSDOF 0
