MODEL 1
REMARK VINA RESULT:   -11.084      0.000      0.000
REMARK INTER + INTRA:         -11.084
REMARK INTER:                 -11.084
REMARK INTRA:                   0.000
REMARK UNBOUND:                 0.000
ROOT
ATOM      1 C1   LIG A   1      18.484  14.525  11.146  1.00 20.00    -0.060 C 
ATOM      2 C2   LIG A   1      19.289  15.787  10.778  1.00 20.00    -0.016 C 
ATOM      3 C3   LIG A   1      20.816  15.444  10.855  1.00 20.00    -0.023 C 
ATOM      4 C4   LIG A   1      21.515  15.373   9.521  1.00 20.00    -0.044 A 
ATOM      5 C5   LIG A   1      21.264  14.328   8.630  1.00 20.00    -0.058 A 
ATOM      6 C6   LIG A   1      21.567  14.486   7.280  1.00 20.00    -0.054 A 
ATOM      7 C7   LIG A   1      22.087  15.704   6.802  1.00 20.00    +0.009 A 
ATOM      8 C8   LIG A   1      22.478  16.683   7.733  1.00 20.00    +0.130 A 
ATOM      9 C9   LIG A   1      22.257  16.480   9.095  1.00 20.00    -0.016 A 
ATOM     10 O10  LIG A   1      22.969  17.878   7.254  1.00 20.00    -0.464 OA
ATOM     11 C11  LIG A   1      22.663  19.042   7.929  1.00 20.00    +0.104 C 
ATOM     12 C12  LIG A   1      21.481  19.694   7.988  1.00 20.00    +0.082 C 
ATOM     13 C13  LIG A   1      21.446  21.016   8.649  1.00 20.00    -0.010 A 
ATOM     14 C14  LIG A   1      21.815  21.152   9.993  1.00 20.00    -0.052 A 
ATOM     15 C15  LIG A   1      21.796  22.404  10.617  1.00 20.00    -0.038 A 
ATOM     16 C16  LIG A   1      21.428  23.564   9.920  1.00 20.00    +0.034 A 
ATOM     17 N17  LIG A   1      21.367  24.768  10.629  1.00 20.00    -0.385 NA
ATOM     18 C18  LIG A   1      21.232  26.032   9.910  1.00 20.00    +0.016 C 
ATOM     19 C19  LIG A   1      21.212  27.211  10.888  1.00 20.00    -0.023 C 
ATOM     20 C20  LIG A   1      19.928  27.305  11.726  1.00 20.00    -0.003 C 
ATOM     21 N21  LIG A   1      19.692  26.182  12.636  1.00 20.00    -0.317 NA
ATOM     22 C22  LIG A   1      20.550  26.167  13.819  1.00 20.00    -0.005 C 
ATOM     23 C23  LIG A   1      20.190  27.208  14.886  1.00 20.00    -0.039 C 
ATOM     24 C24  LIG A   1      18.924  26.909  15.698  1.00 20.00    -0.040 C 
ATOM     25 C25  LIG A   1      17.638  26.859  14.878  1.00 20.00    -0.008 C 
ATOM     26 N26  LIG A   1      16.481  26.815  15.774  1.00 20.00    -0.330 NA
ATOM     27 C27  LIG A   1      21.015  23.414   8.594  1.00 20.00    -0.038 A 
ATOM     28 C28  LIG A   1      21.038  22.163   7.961  1.00 20.00    -0.052 A 
ATOM     29 C29  LIG A   1      20.267  19.172   7.265  1.00 20.00    +0.264 C 
ATOM     30 O30  LIG A   1      19.752  19.837   6.366  1.00 20.00    -0.268 OA
ATOM     31 N31  LIG A   1      19.797  17.921   7.645  1.00 20.00    -0.277 NA
ATOM     32 C32  LIG A   1      19.192  17.097   6.590  1.00 20.00    +0.029 C 
ATOM     33 C33  LIG A   1      19.740  17.178   5.146  1.00 20.00    -0.034 C 
ATOM     34 C34  LIG A   1      21.257  17.185   4.868  1.00 20.00    -0.034 C 
ATOM     35 C35  LIG A   1      22.093  15.953   5.301  1.00 20.00    +0.085 C 
ATOM     36 C36  LIG A   1      23.514  16.028   4.746  1.00 20.00    +0.311 C 
ATOM     37 O37  LIG A   1      24.566  15.891   5.350  1.00 20.00    -0.252 OA
ATOM     38 O38  LIG A   1      23.544  16.205   3.407  1.00 20.00    -0.481 OA
ATOM     39 C39  LIG A   1      19.521  17.700   9.006  1.00 20.00    +0.246 C 
ATOM     40 O40  LIG A   1      19.815  18.509   9.895  1.00 20.00    -0.273 OA
ATOM     41 C41  LIG A   1      18.764  16.401   9.431  1.00 20.00    +0.088 C 
ATOM     42 N42  LIG A   1      17.330  16.764   9.571  1.00 20.00    -0.320 NA
ATOM     43 O43  LIG A   1      21.773  22.233  10.714  1.00 20.00    -0.504 OA
ATOM     44 C44  LIG A   1      21.061  21.203  10.162  1.00 20.00    +0.157 A 
ATOM     45 C45  LIG A   1      21.414  19.874  10.366  1.00 20.00    -0.016 A 
ATOM     46 C46  LIG A   1      20.646  18.867   9.773  1.00 20.00    -0.058 A 
ATOM     47 C47  LIG A   1      19.538  19.195   8.986  1.00 20.00    -0.058 A 
ATOM     48 C48  LIG A   1      19.189  20.532   8.789  1.00 20.00    -0.016 A 
ATOM     49 C49  LIG A   1      19.956  21.526   9.379  1.00 20.00    +0.157 A 
ATOM     50 O50  LIG A   1      19.616  22.834   9.185  1.00 20.00    -0.504 OA
ATOM     51 H51  LIG A   1      17.415  14.740  11.242  1.00 20.00    +0.023 H 
ATOM     52 H52  LIG A   1      18.606  13.742  10.390  1.00 20.00    +0.023 H 
ATOM     53 H53  LIG A   1      18.813  14.122  12.109  1.00 20.00    +0.023 H 
ATOM     54 H54  LIG A   1      19.100  16.512  11.585  1.00 20.00    +0.032 H 
ATOM     55 H55  LIG A   1      21.305  16.211  11.473  1.00 20.00    +0.032 H 
ATOM     56 H56  LIG A   1      20.987  14.503  11.394  1.00 20.00    +0.032 H 
ATOM     57 H57  LIG A   1      20.740  13.433   8.960  1.00 20.00    +0.063 H 
ATOM     58 H58  LIG A   1      21.295  13.690   6.589  1.00 20.00    +0.063 H 
ATOM     59 H59  LIG A   1      22.504  17.263   9.811  1.00 20.00    +0.067 H 
ATOM     60 H60  LIG A   1      23.577  19.442   8.353  1.00 20.00    +0.105 H 
ATOM     61 H61  LIG A   1      22.091  20.277  10.579  1.00 20.00    +0.063 H 
ATOM     62 H62  LIG A   1      22.061  22.463  11.670  1.00 20.00    +0.064 H 
ATOM     63 H63  LIG A   1      22.076  24.798  11.359  1.00 20.00    +0.160 HD
ATOM     64 H64  LIG A   1      22.082  26.158   9.228  1.00 20.00    +0.049 H 
ATOM     65 H65  LIG A   1      20.310  26.047   9.317  1.00 20.00    +0.049 H 
ATOM     66 H66  LIG A   1      21.288  28.135  10.299  1.00 20.00    +0.030 H 
ATOM     67 H67  LIG A   1      22.096  27.187  11.534  1.00 20.00    +0.030 H 
ATOM     68 H68  LIG A   1      19.074  27.352  11.040  1.00 20.00    +0.043 H 
ATOM     69 H69  LIG A   1      19.916  28.256  12.268  1.00 20.00    +0.043 H 
ATOM     70 H70  LIG A   1      19.864  25.318  12.102  1.00 20.00    +0.122 HD
ATOM     71 H71  LIG A   1      20.482  25.172  14.275  1.00 20.00    +0.043 H 
ATOM     72 H72  LIG A   1      21.601  26.288  13.533  1.00 20.00    +0.043 H 
ATOM     73 H73  LIG A   1      20.116  28.210  14.448  1.00 20.00    +0.028 H 
ATOM     74 H74  LIG A   1      21.028  27.257  15.594  1.00 20.00    +0.028 H 
ATOM     75 H75  LIG A   1      18.836  27.688  16.467  1.00 20.00    +0.028 H 
ATOM     76 H76  LIG A   1      19.053  25.959  16.234  1.00 20.00    +0.028 H 
ATOM     77 H77  LIG A   1      17.557  27.737  14.228  1.00 20.00    +0.043 H 
ATOM     78 H78  LIG A   1      17.615  25.963  14.251  1.00 20.00    +0.043 H 
ATOM     79 H79  LIG A   1      15.631  26.770  15.212  1.00 20.00    +0.118 HD
ATOM     80 H80  LIG A   1      16.430  27.690  16.296  1.00 20.00    +0.118 HD
ATOM     81 H81  LIG A   1      20.664  24.261   8.015  1.00 20.00    +0.064 H 
ATOM     82 H82  LIG A   1      20.724  22.101   6.921  1.00 20.00    +0.063 H 
ATOM     83 H83  LIG A   1      19.253  16.047   6.872  1.00 20.00    +0.050 H 
ATOM     84 H84  LIG A   1      18.122  17.343   6.571  1.00 20.00    +0.050 H 
ATOM     85 H85  LIG A   1      19.324  18.078   4.676  1.00 20.00    +0.029 H 
ATOM     86 H86  LIG A   1      19.299  16.343   4.584  1.00 20.00    +0.029 H 
ATOM     87 H87  LIG A   1      21.347  17.276   3.777  1.00 20.00    +0.028 H 
ATOM     88 H88  LIG A   1      21.701  18.112   5.236  1.00 20.00    +0.028 H 
ATOM     89 H89  LIG A   1      21.648  15.073   4.812  1.00 20.00    +0.047 H 
ATOM     90 H90  LIG A   1      24.500  16.216   3.193  1.00 20.00    +0.296 HD
ATOM     91 H91  LIG A   1      18.818  15.622   8.675  1.00 20.00    +0.057 H 
ATOM     92 H92  LIG A   1      17.251  17.439  10.337  1.00 20.00    +0.119 HD
ATOM     93 H93  LIG A   1      17.016  17.270   8.742  1.00 20.00    +0.119 HD
ATOM     94 H94  LIG A   1      22.488  21.849  11.250  1.00 20.00    +0.293 HD
ATOM     95 H95  LIG A   1      22.271  19.601  10.973  1.00 20.00    +0.066 H 
ATOM     96 H96  LIG A   1      20.911  17.823   9.922  1.00 20.00    +0.062 H 
ATOM     97 H97  LIG A   1      18.944  18.408   8.528  1.00 20.00    +0.062 H 
ATOM     98 H98  LIG A   1      18.329  20.796   8.181  1.00 20.00    +0.066 H 
ATOM     99 H99  LIG A   1      20.294  23.336   9.682  1.00 20.00    +0.293 HD
ENDROOT
TORSDOF 0
                                                                                                      
ENDMDL
MODEL 2
REMARK VINA RESULT:   -11.023      3.960      9.728
REMARK INTER + INTRA:         -11.023
REMARK INTER:                 -11.023
REMARK INTRA:                   0.000
REMARK UNBOUND:                 0.000
ROOT
ATOM      1 C1   LIG A   1      21.547  22.699   6.900  1.00 20.00    -0.060 C 
ATOM      2 C2   LIG A   1      21.331  21.191   7.136  1.00 20.00    -0.016 C 
ATOM      3 C3   LIG A   1      22.712  20.463   6.993  1.00 20.00    -0.023 C 
ATOM      4 C4   LIG A   1      23.288  19.944   8.286  1.00 20.00    -0.044 A 
ATOM      5 C5   LIG A   1      23.781  20.817   9.257  1.00 20.00    -0.058 A 
ATOM      6 C6   LIG A   1      23.910  20.382  10.574  1.00 20.00    -0.054 A 
ATOM      7 C7   LIG A   1      23.508  19.083  10.939  1.00 20.00    +0.009 A 
ATOM      8 C8   LIG A   1      23.163  18.172   9.924  1.00 20.00    +0.130 A 
ATOM      9 C9   LIG A   1      23.126  18.588   8.594  1.00 20.00    -0.016 A 
ATOM     10 O10  LIG A   1      22.754  16.909  10.294  1.00 20.00    -0.464 OA
ATOM     11 C11  LIG A   1      21.761  16.290   9.563  1.00 20.00    +0.104 C 
ATOM     12 C12  LIG A   1      20.440  16.573   9.530  1.00 20.00    +0.082 C 
ATOM     13 C13  LIG A   1      19.548  15.657   8.787  1.00 20.00    -0.010 A 
ATOM     14 C14  LIG A   1      19.738  15.433   7.418  1.00 20.00    -0.052 A 
ATOM     15 C15  LIG A   1      18.904  14.556   6.714  1.00 20.00    -0.038 A 
ATOM     16 C16  LIG A   1      17.868  13.860   7.354  1.00 20.00    +0.034 A 
ATOM     17 N17  LIG A   1      17.034  13.054   6.572  1.00 20.00    -0.385 NA
ATOM     18 C18  LIG A   1      16.107  12.125   7.213  1.00 20.00    +0.016 C 
ATOM     19 C19  LIG A   1      15.320  11.335   6.163  1.00 20.00    -0.023 C 
ATOM     20 C20  LIG A   1      14.286  12.174   5.397  1.00 20.00    -0.003 C 
ATOM     21 N21  LIG A   1      14.840  13.255   4.578  1.00 20.00    -0.317 NA
ATOM     22 C22  LIG A   1      15.499  12.811   3.350  1.00 20.00    -0.005 C 
ATOM     23 C23  LIG A   1      14.544  12.355   2.240  1.00 20.00    -0.039 C 
ATOM     24 C24  LIG A   1      13.781  13.476   1.525  1.00 20.00    -0.040 C 
ATOM     25 C25  LIG A   1      12.841  14.278   2.420  1.00 20.00    -0.008 C 
ATOM     26 N26  LIG A   1      11.992  15.143   1.597  1.00 20.00    -0.330 NA
ATOM     27 C27  LIG A   1      17.655  14.125   8.709  1.00 20.00    -0.038 A 
ATOM     28 C28  LIG A   1      18.491  14.998   9.420  1.00 20.00    -0.052 A 
ATOM     29 C29  LIG A   1      19.863  17.693  10.355  1.00 20.00    +0.264 C 
ATOM     30 O30  LIG A   1      19.040  17.449  11.238  1.00 20.00    -0.268 OA
ATOM     31 N31  LIG A   1      20.325  18.976  10.087  1.00 20.00    -0.277 NA
ATOM     32 C32  LIG A   1      20.406  19.899  11.227  1.00 20.00    +0.029 C 
ATOM     33 C33  LIG A   1      20.770  19.354  12.628  1.00 20.00    -0.034 C 
ATOM     34 C34  LIG A   1      21.913  18.337  12.817  1.00 20.00    -0.034 C 
ATOM     35 C35  LIG A   1      23.351  18.760  12.418  1.00 20.00    +0.085 C 
ATOM     36 C36  LIG A   1      24.378  17.728  12.883  1.00 20.00    +0.311 C 
ATOM     37 O37  LIG A   1      25.263  17.200  12.229  1.00 20.00    -0.252 OA
ATOM     38 O38  LIG A   1      24.286  17.458  14.204  1.00 20.00    -0.481 OA
ATOM     39 C39  LIG A   1      20.258  19.442   8.762  1.00 20.00    +0.246 C 
ATOM     40 O40  LIG A   1      19.952  18.719   7.806  1.00 20.00    -0.273 OA
ATOM     41 C41  LIG A   1      20.535  20.952   8.468  1.00 20.00    +0.088 C 
ATOM     42 N42  LIG A   1      19.211  21.624   8.389  1.00 20.00    -0.320 NA
ATOM     43 O43  LIG A   1      18.999  14.709   6.631  1.00 20.00    -0.504 OA
ATOM     44 C44  LIG A   1      19.134  15.900   7.290  1.00 20.00    +0.157 A 
ATOM     45 C45  LIG A   1      20.269  16.690   7.154  1.00 20.00    -0.016 A 
ATOM     46 C46  LIG A   1      20.346  17.897   7.856  1.00 20.00    -0.058 A 
ATOM     47 C47  LIG A   1      19.294  18.302   8.682  1.00 20.00    -0.058 A 
ATOM     48 C48  LIG A   1      18.157  17.504   8.811  1.00 20.00    -0.016 A 
ATOM     49 C49  LIG A   1      18.087  16.307   8.114  1.00 20.00    +0.157 A 
ATOM     50 O50  LIG A   1      16.975  15.525   8.240  1.00 20.00    -0.504 OA
ATOM     51 H51  LIG A   1      20.596  23.241   6.852  1.00 20.00    +0.023 H 
ATOM     52 H52  LIG A   1      22.152  23.144   7.697  1.00 20.00    +0.023 H 
ATOM     53 H53  LIG A   1      22.058  22.873   5.947  1.00 20.00    +0.023 H 
ATOM     54 H54  LIG A   1      20.714  20.839   6.296  1.00 20.00    +0.032 H 
ATOM     55 H55  LIG A   1      22.580  19.620   6.299  1.00 20.00    +0.032 H 
ATOM     56 H56  LIG A   1      23.455  21.108   6.508  1.00 20.00    +0.032 H 
ATOM     57 H57  LIG A   1      23.970  21.862   9.018  1.00 20.00    +0.063 H 
ATOM     58 H58  LIG A   1      24.225  21.098  11.330  1.00 20.00    +0.063 H 
ATOM     59 H59  LIG A   1      22.801  17.900   7.815  1.00 20.00    +0.067 H 
ATOM     60 H60  LIG A   1      22.191  15.431   9.061  1.00 20.00    +0.105 H 
ATOM     61 H61  LIG A   1      20.518  15.964   6.875  1.00 20.00    +0.063 H 
ATOM     62 H62  LIG A   1      19.065  14.432   5.647  1.00 20.00    +0.064 H 
ATOM     63 H63  LIG A   1      17.550  12.634   5.802  1.00 20.00    +0.160 HD
ATOM     64 H64  LIG A   1      16.668  11.418   7.835  1.00 20.00    +0.049 H 
ATOM     65 H65  LIG A   1      15.400  12.662   7.856  1.00 20.00    +0.049 H 
ATOM     66 H66  LIG A   1      14.774  10.538   6.684  1.00 20.00    +0.030 H 
ATOM     67 H67  LIG A   1      16.005  10.835   5.469  1.00 20.00    +0.030 H 
ATOM     68 H68  LIG A   1      13.609  12.634   6.126  1.00 20.00    +0.043 H 
ATOM     69 H69  LIG A   1      13.655  11.513   4.794  1.00 20.00    +0.043 H 
ATOM     70 H70  LIG A   1      15.536  13.747   5.156  1.00 20.00    +0.122 HD
ATOM     71 H71  LIG A   1      16.096  13.647   2.965  1.00 20.00    +0.043 H 
ATOM     72 H72  LIG A   1      16.215  12.010   3.566  1.00 20.00    +0.043 H 
ATOM     73 H73  LIG A   1      13.834  11.609   2.615  1.00 20.00    +0.028 H 
ATOM     74 H74  LIG A   1      15.146  11.834   1.482  1.00 20.00    +0.028 H 
ATOM     75 H75  LIG A   1      13.204  13.013   0.712  1.00 20.00    +0.028 H 
ATOM     76 H76  LIG A   1      14.498  14.155   1.046  1.00 20.00    +0.028 H 
ATOM     77 H77  LIG A   1      12.206  13.612   3.014  1.00 20.00    +0.043 H 
ATOM     78 H78  LIG A   1      13.409  14.914   3.104  1.00 20.00    +0.043 H 
ATOM     79 H79  LIG A   1      11.380  15.681   2.210  1.00 20.00    +0.118 HD
ATOM     80 H80  LIG A   1      11.382  14.563   1.022  1.00 20.00    +0.118 HD
ATOM     81 H81  LIG A   1      16.837  13.664   9.251  1.00 20.00    +0.064 H 
ATOM     82 H82  LIG A   1      18.295  15.157  10.479  1.00 20.00    +0.063 H 
ATOM     83 H83  LIG A   1      21.139  20.675  11.012  1.00 20.00    +0.050 H 
ATOM     84 H84  LIG A   1      19.436  20.408  11.293  1.00 20.00    +0.050 H 
ATOM     85 H85  LIG A   1      19.867  18.905  13.062  1.00 20.00    +0.029 H 
ATOM     86 H86  LIG A   1      20.982  20.221  13.269  1.00 20.00    +0.029 H 
ATOM     87 H87  LIG A   1      21.923  18.113  13.892  1.00 20.00    +0.028 H 
ATOM     88 H88  LIG A   1      21.644  17.381  12.364  1.00 20.00    +0.028 H 
ATOM     89 H89  LIG A   1      23.590  19.669  12.989  1.00 20.00    +0.047 H 
ATOM     90 H90  LIG A   1      25.004  16.809  14.360  1.00 20.00    +0.296 HD
ATOM     91 H91  LIG A   1      21.085  21.437   9.269  1.00 20.00    +0.057 H 
ATOM     92 H92  LIG A   1      18.710  21.234   7.585  1.00 20.00    +0.119 HD
ATOM     93 H93  LIG A   1      18.644  21.374   9.199  1.00 20.00    +0.119 HD
ATOM     94 H94  LIG A   1      19.790  14.580   6.081  1.00 20.00    +0.293 HD
ATOM     95 H95  LIG A   1      21.095  16.392   6.517  1.00 20.00    +0.066 H 
ATOM     96 H96  LIG A   1      21.229  18.525   7.761  1.00 20.00    +0.062 H 
ATOM     97 H97  LIG A   1      19.359  19.242   9.225  1.00 20.00    +0.062 H 
ATOM     98 H98  LIG A   1      17.334  17.811   9.449  1.00 20.00    +0.066 H 
ATOM     99 H99  LIG A   1      17.160  14.749   7.673  1.00 20.00    +0.293 HD
ENDROOT
TORSDOF 0
                                                                                                      
ENDMDL
MODEL 3
REMARK VINA RESULT:   -10.818      7.530     11.885
REMARK INTER + INTRA:         -10.818
REMARK INTER:                 -10.818
REMARK INTRA:                   0.000
REMARK UNBOUND:                 0.000
ROOT
ATOM      1 C1   LIG A   1      18.491  17.176   8.160  1.00 20.00    -0.060 C 
ATOM      2 C2   LIG A   1      17.880  16.478   6.929  1.00 20.00    -0.016 C 
ATOM      3 C3   LIG A   1      18.807  16.744   5.694  1.00 20.00    -0.023 C 
ATOM      4 C4   LIG A   1      19.577  15.541   5.212  1.00 20.00    -0.044 A 
ATOM      5 C5   LIG A   1      20.628  15.009   5.962  1.00 20.00    -0.058 A 
ATOM      6 C6   LIG A   1      21.038  13.697   5.740  1.00 20.00    -0.054 A 
ATOM      7 C7   LIG A   1      20.376  12.892   4.793  1.00 20.00    +0.009 A 
ATOM      8 C8   LIG A   1      19.429  13.490   3.942  1.00 20.00    +0.130 A 
ATOM      9 C9   LIG A   1      19.089  14.832   4.109  1.00 20.00    -0.016 A 
ATOM     10 O10  LIG A   1      18.774  12.689   3.033  1.00 20.00    -0.464 OA
ATOM     11 C11  LIG A   1      17.447  12.947   2.753  1.00 20.00    +0.104 C 
ATOM     12 C12  LIG A   1      16.366  12.732   3.533  1.00 20.00    +0.082 C 
ATOM     13 C13  LIG A   1      15.026  12.943   2.943  1.00 20.00    -0.010 A 
ATOM     14 C14  LIG A   1      14.660  14.195   2.435  1.00 20.00    -0.052 A 
ATOM     15 C15  LIG A   1      13.398  14.394   1.864  1.00 20.00    -0.038 A 
ATOM     16 C16  LIG A   1      12.468  13.349   1.761  1.00 20.00    +0.034 A 
ATOM     17 N17  LIG A   1      11.203  13.640   1.240  1.00 20.00    -0.385 NA
ATOM     18 C18  LIG A   1      10.292  12.555   0.885  1.00 20.00    +0.016 C 
ATOM     19 C19  LIG A   1       8.984  13.111   0.315  1.00 20.00    -0.023 C 
ATOM     20 C20  LIG A   1       8.094  13.804   1.357  1.00 20.00    -0.003 C 
ATOM     21 N21  LIG A   1       8.666  15.005   1.970  1.00 20.00    -0.317 NA
ATOM     22 C22  LIG A   1       8.687  16.180   1.099  1.00 20.00    -0.005 C 
ATOM     23 C23  LIG A   1       7.322  16.845   0.887  1.00 20.00    -0.039 C 
ATOM     24 C24  LIG A   1       6.781  17.637   2.083  1.00 20.00    -0.040 C 
ATOM     25 C25  LIG A   1       6.518  16.803   3.333  1.00 20.00    -0.008 C 
ATOM     26 N26  LIG A   1       5.782  17.601   4.315  1.00 20.00    -0.330 NA
ATOM     27 C27  LIG A   1      12.822  12.115   2.313  1.00 20.00    -0.038 A 
ATOM     28 C28  LIG A   1      14.088  11.909   2.881  1.00 20.00    -0.052 A 
ATOM     29 C29  LIG A   1      16.505  12.142   4.912  1.00 20.00    +0.264 C 
ATOM     30 O30  LIG A   1      15.995  11.052   5.171  1.00 20.00    -0.268 OA
ATOM     31 N31  LIG A   1      17.248  12.867   5.836  1.00 20.00    -0.277 NA
ATOM     32 C32  LIG A   1      18.008  12.092   6.824  1.00 20.00    +0.029 C 
ATOM     33 C33  LIG A   1      18.618  10.728   6.422  1.00 20.00    -0.034 C 
ATOM     34 C34  LIG A   1      19.352  10.547   5.079  1.00 20.00    -0.034 C 
ATOM     35 C35  LIG A   1      20.626  11.391   4.814  1.00 20.00    +0.085 C 
ATOM     36 C36  LIG A   1      21.346  10.921   3.551  1.00 20.00    +0.311 C 
ATOM     37 O37  LIG A   1      21.731  11.596   2.610  1.00 20.00    -0.252 OA
ATOM     38 O38  LIG A   1      21.619   9.598   3.566  1.00 20.00    -0.481 OA
ATOM     39 C39  LIG A   1      16.900  14.211   6.059  1.00 20.00    +0.246 C 
ATOM     40 O40  LIG A   1      16.069  14.818   5.372  1.00 20.00    -0.273 OA
ATOM     41 C41  LIG A   1      17.545  14.979   7.258  1.00 20.00    +0.088 C 
ATOM     42 N42  LIG A   1      16.575  14.917   8.382  1.00 20.00    -0.320 NA
ATOM     43 O43  LIG A   1      13.504  14.537   1.949  1.00 20.00    -0.504 OA
ATOM     44 C44  LIG A   1      14.239  14.297   3.077  1.00 20.00    +0.157 A 
ATOM     45 C45  LIG A   1      15.457  14.926   3.309  1.00 20.00    -0.016 A 
ATOM     46 C46  LIG A   1      16.161  14.636   4.482  1.00 20.00    -0.058 A 
ATOM     47 C47  LIG A   1      15.645  13.725   5.408  1.00 20.00    -0.058 A 
ATOM     48 C48  LIG A   1      14.420  13.099   5.169  1.00 20.00    -0.016 A 
ATOM     49 C49  LIG A   1      13.728  13.391   4.003  1.00 20.00    +0.157 A 
ATOM     50 O50  LIG A   1      12.530  12.778   3.768  1.00 20.00    -0.504 OA
ATOM     51 H51  LIG A   1      17.817  17.140   9.022  1.00 20.00    +0.023 H 
ATOM     52 H52  LIG A   1      19.439  16.712   8.450  1.00 20.00    +0.023 H 
ATOM     53 H53  LIG A   1      18.680  18.234   7.951  1.00 20.00    +0.023 H 
ATOM     54 H54  LIG A   1      16.937  17.005   6.720  1.00 20.00    +0.032 H 
ATOM     55 H55  LIG A   1      18.179  17.117   4.873  1.00 20.00    +0.032 H 
ATOM     56 H56  LIG A   1      19.515  17.559   5.894  1.00 20.00    +0.032 H 
ATOM     57 H57  LIG A   1      21.061  15.573   6.787  1.00 20.00    +0.063 H 
ATOM     58 H58  LIG A   1      21.808  13.276   6.385  1.00 20.00    +0.063 H 
ATOM     59 H59  LIG A   1      18.312  15.279   3.490  1.00 20.00    +0.067 H 
ATOM     60 H60  LIG A   1      17.373  13.275   1.722  1.00 20.00    +0.105 H 
ATOM     61 H61  LIG A   1      15.342  15.040   2.508  1.00 20.00    +0.063 H 
ATOM     62 H62  LIG A   1      13.140  15.388   1.508  1.00 20.00    +0.064 H 
ATOM     63 H63  LIG A   1      11.260  14.362   0.526  1.00 20.00    +0.160 HD
ATOM     64 H64  LIG A   1      10.761  11.917   0.127  1.00 20.00    +0.049 H 
ATOM     65 H65  LIG A   1      10.063  11.936   1.761  1.00 20.00    +0.049 H 
ATOM     66 H66  LIG A   1       8.413  12.268  -0.096  1.00 20.00    +0.030 H 
ATOM     67 H67  LIG A   1       9.189  13.782  -0.527  1.00 20.00    +0.030 H 
ATOM     68 H68  LIG A   1       7.894  13.091   2.166  1.00 20.00    +0.043 H 
ATOM     69 H69  LIG A   1       7.115  14.020   0.915  1.00 20.00    +0.043 H 
ATOM     70 H70  LIG A   1       9.637  14.779   2.230  1.00 20.00    +0.122 HD
ATOM     71 H71  LIG A   1       9.363  16.920   1.546  1.00 20.00    +0.043 H 
ATOM     72 H72  LIG A   1       9.126  15.930   0.127  1.00 20.00    +0.043 H 
ATOM     73 H73  LIG A   1       6.574  16.111   0.564  1.00 20.00    +0.028 H 
ATOM     74 H74  LIG A   1       7.426  17.548   0.049  1.00 20.00    +0.028 H 
ATOM     75 H75  LIG A   1       5.847  18.117   1.762  1.00 20.00    +0.028 H 
ATOM     76 H76  LIG A   1       7.478  18.450   2.325  1.00 20.00    +0.028 H 
ATOM     77 H77  LIG A   1       5.937  15.907   3.088  1.00 20.00    +0.043 H 
ATOM     78 H78  LIG A   1       7.460  16.488   3.791  1.00 20.00    +0.043 H 
ATOM     79 H79  LIG A   1       5.625  17.034   5.148  1.00 20.00    +0.118 HD
ATOM     80 H80  LIG A   1       4.858  17.819   3.942  1.00 20.00    +0.118 HD
ATOM     81 H81  LIG A   1      12.130  11.281   2.318  1.00 20.00    +0.064 H 
ATOM     82 H82  LIG A   1      14.323  10.924   3.281  1.00 20.00    +0.063 H 
ATOM     83 H83  LIG A   1      18.840  12.691   7.192  1.00 20.00    +0.050 H 
ATOM     84 H84  LIG A   1      17.344  11.936   7.684  1.00 20.00    +0.050 H 
ATOM     85 H85  LIG A   1      17.819   9.977   6.455  1.00 20.00    +0.029 H 
ATOM     86 H86  LIG A   1      19.308  10.432   7.225  1.00 20.00    +0.029 H 
ATOM     87 H87  LIG A   1      19.648   9.490   5.054  1.00 20.00    +0.028 H 
ATOM     88 H88  LIG A   1      18.645  10.631   4.251  1.00 20.00    +0.028 H 
ATOM     89 H89  LIG A   1      21.330  11.178   5.632  1.00 20.00    +0.047 H 
ATOM     90 H90  LIG A   1      22.088   9.446   2.719  1.00 20.00    +0.296 HD
ATOM     91 H91  LIG A   1      18.460  14.509   7.607  1.00 20.00    +0.057 H 
ATOM     92 H92  LIG A   1      15.733  15.428   8.098  1.00 20.00    +0.119 HD
ATOM     93 H93  LIG A   1      16.264  13.955   8.521  1.00 20.00    +0.119 HD
ATOM     94 H94  LIG A   1      13.974  15.206   1.422  1.00 20.00    +0.293 HD
ATOM     95 H95  LIG A   1      15.872  15.636   2.601  1.00 20.00    +0.066 H 
ATOM     96 H96  LIG A   1      17.115  15.119   4.676  1.00 20.00    +0.062 H 
ATOM     97 H97  LIG A   1      16.196  13.504   6.319  1.00 20.00    +0.062 H 
ATOM     98 H98  LIG A   1      14.011  12.393   5.884  1.00 20.00    +0.066 H 
ATOM     99 H99  LIG A   1      12.245  13.130   2.900  1.00 20.00    +0.293 HD
ENDROOT
TORSDOF 0
                                                                                                      
ENDMDL
MODEL 4
REMARK VINA RESULT:   -10.540      3.015      9.076
REMARK INTER + INTRA:         -10.540
REMARK INTER:                 -10.540
REMARK INTRA:                   0.000
REMARK UNBOUND:                 0.000
ROOT
ATOM      1 C1   LIG A   1      22.366  23.576  15.129  1.00 20.00    -0.060 C 
ATOM      2 C2   LIG A   1      21.743  22.751  13.986  1.00 20.00    -0.016 C 
ATOM      3 C3   LIG A   1      20.441  23.477  13.500  1.00 20.00    -0.023 C 
ATOM      4 C4   LIG A   1      20.546  24.117  12.140  1.00 20.00    -0.044 A 
ATOM      5 C5   LIG A   1      21.328  25.255  11.936  1.00 20.00    -0.058 A 
ATOM      6 C6   LIG A   1      21.753  25.579  10.650  1.00 20.00    -0.054 A 
ATOM      7 C7   LIG A   1      21.434  24.745   9.561  1.00 20.00    +0.009 A 
ATOM      8 C8   LIG A   1      20.519  23.695   9.760  1.00 20.00    +0.130 A 
ATOM      9 C9   LIG A   1      20.022  23.433  11.036  1.00 20.00    -0.016 A 
ATOM     10 O10  LIG A   1      20.228  22.875   8.692  1.00 20.00    -0.464 OA
ATOM     11 C11  LIG A   1      20.018  21.530   8.923  1.00 20.00    +0.104 C 
ATOM     12 C12  LIG A   1      20.925  20.582   9.245  1.00 20.00    +0.082 C 
ATOM     13 C13  LIG A   1      20.476  19.173   9.283  1.00 20.00    -0.010 A 
ATOM     14 C14  LIG A   1      19.453  18.774  10.151  1.00 20.00    -0.052 A 
ATOM     15 C15  LIG A   1      19.017  17.444  10.179  1.00 20.00    -0.038 A 
ATOM     16 C16  LIG A   1      19.571  16.474   9.331  1.00 20.00    +0.034 A 
ATOM     17 N17  LIG A   1      19.132  15.153   9.464  1.00 20.00    -0.385 NA
ATOM     18 C18  LIG A   1      19.489  14.159   8.455  1.00 20.00    +0.016 C 
ATOM     19 C19  LIG A   1      18.879  12.797   8.797  1.00 20.00    -0.023 C 
ATOM     20 C20  LIG A   1      19.525  12.110  10.009  1.00 20.00    -0.003 C 
ATOM     21 N21  LIG A   1      19.371  12.815  11.284  1.00 20.00    -0.317 NA
ATOM     22 C22  LIG A   1      18.030  12.737  11.863  1.00 20.00    -0.005 C 
ATOM     23 C23  LIG A   1      17.677  11.380  12.482  1.00 20.00    -0.039 C 
ATOM     24 C24  LIG A   1      18.362  11.065  13.817  1.00 20.00    -0.040 C 
ATOM     25 C25  LIG A   1      19.884  10.978  13.747  1.00 20.00    -0.008 C 
ATOM     26 N26  LIG A   1      20.407  10.437  15.003  1.00 20.00    -0.330 NA
ATOM     27 C27  LIG A   1      20.624  16.869   8.503  1.00 20.00    -0.038 A 
ATOM     28 C28  LIG A   1      21.061  18.201   8.465  1.00 20.00    -0.052 A 
ATOM     29 C29  LIG A   1      22.383  20.920   9.404  1.00 20.00    +0.264 C 
ATOM     30 O30  LIG A   1      23.218  20.420   8.650  1.00 20.00    -0.268 OA
ATOM     31 N31  LIG A   1      22.714  21.826  10.404  1.00 20.00    -0.277 NA
ATOM     32 C32  LIG A   1      23.859  22.708  10.141  1.00 20.00    +0.029 C 
ATOM     33 C33  LIG A   1      24.133  23.197   8.700  1.00 20.00    -0.034 C 
ATOM     34 C34  LIG A   1      22.989  23.700   7.797  1.00 20.00    -0.034 C 
ATOM     35 C35  LIG A   1      22.181  24.943   8.251  1.00 20.00    +0.085 C 
ATOM     36 C36  LIG A   1      21.253  25.434   7.140  1.00 20.00    +0.311 C 
ATOM     37 O37  LIG A   1      20.062  25.686   7.212  1.00 20.00    -0.252 OA
ATOM     38 O38  LIG A   1      21.904  25.659   5.977  1.00 20.00    -0.481 OA
ATOM     39 C39  LIG A   1      22.267  21.565  11.712  1.00 20.00    +0.246 C 
ATOM     40 O40  LIG A   1      21.473  20.657  11.985  1.00 20.00    -0.273 OA
ATOM     41 C41  LIG A   1      22.823  22.422  12.895  1.00 20.00    +0.088 C 
ATOM     42 N42  LIG A   1      23.931  21.643  13.506  1.00 20.00    -0.320 NA
ATOM     43 O43  LIG A   1      19.004  17.567  10.333  1.00 20.00    -0.504 OA
ATOM     44 C44  LIG A   1      20.000  18.465  10.603  1.00 20.00    +0.157 A 
ATOM     45 C45  LIG A   1      19.731  19.726  11.125  1.00 20.00    -0.016 A 
ATOM     46 C46  LIG A   1      20.794  20.598  11.378  1.00 20.00    -0.058 A 
ATOM     47 C47  LIG A   1      22.109  20.206  11.110  1.00 20.00    -0.058 A 
ATOM     48 C48  LIG A   1      22.370  18.938  10.588  1.00 20.00    -0.016 A 
ATOM     49 C49  LIG A   1      21.311  18.078  10.338  1.00 20.00    +0.157 A 
ATOM     50 O50  LIG A   1      21.566  16.837   9.827  1.00 20.00    -0.504 OA
ATOM     51 H51  LIG A   1      23.201  23.048  15.600  1.00 20.00    +0.023 H 
ATOM     52 H52  LIG A   1      22.733  24.542  14.768  1.00 20.00    +0.023 H 
ATOM     53 H53  LIG A   1      21.628  23.766  15.917  1.00 20.00    +0.023 H 
ATOM     54 H54  LIG A   1      21.411  21.806  14.441  1.00 20.00    +0.032 H 
ATOM     55 H55  LIG A   1      19.627  22.738  13.484  1.00 20.00    +0.032 H 
ATOM     56 H56  LIG A   1      20.113  24.235  14.223  1.00 20.00    +0.032 H 
ATOM     57 H57  LIG A   1      21.694  25.834  12.782  1.00 20.00    +0.063 H 
ATOM     58 H58  LIG A   1      22.424  26.427  10.522  1.00 20.00    +0.063 H 
ATOM     59 H59  LIG A   1      19.362  22.584  11.201  1.00 20.00    +0.067 H 
ATOM     60 H60  LIG A   1      18.981  21.303   8.703  1.00 20.00    +0.105 H 
ATOM     61 H61  LIG A   1      19.004  19.488  10.839  1.00 20.00    +0.063 H 
ATOM     62 H62  LIG A   1      18.240  17.167  10.888  1.00 20.00    +0.064 H 
ATOM     63 H63  LIG A   1      18.149  15.120   9.727  1.00 20.00    +0.160 HD
ATOM     64 H64  LIG A   1      19.108  14.478   7.478  1.00 20.00    +0.049 H 
ATOM     65 H65  LIG A   1      20.578  14.052   8.381  1.00 20.00    +0.049 H 
ATOM     66 H66  LIG A   1      19.024  12.138   7.930  1.00 20.00    +0.030 H 
ATOM     67 H67  LIG A   1      17.796  12.887   8.935  1.00 20.00    +0.030 H 
ATOM     68 H68  LIG A   1      20.601  12.018   9.818  1.00 20.00    +0.043 H 
ATOM     69 H69  LIG A   1      19.157  11.081  10.085  1.00 20.00    +0.043 H 
ATOM     70 H70  LIG A   1      19.590  13.806  11.111  1.00 20.00    +0.122 HD
ATOM     71 H71  LIG A   1      17.955  13.501  12.647  1.00 20.00    +0.043 H 
ATOM     72 H72  LIG A   1      17.273  13.004  11.117  1.00 20.00    +0.043 H 
ATOM     73 H73  LIG A   1      17.863  10.564  11.773  1.00 20.00    +0.028 H 
ATOM     74 H74  LIG A   1      16.593  11.371  12.661  1.00 20.00    +0.028 H 
ATOM     75 H75  LIG A   1      17.958  10.109  14.176  1.00 20.00    +0.028 H 
ATOM     76 H76  LIG A   1      18.073  11.820  14.560  1.00 20.00    +0.028 H 
ATOM     77 H77  LIG A   1      20.199  10.334  12.918  1.00 20.00    +0.043 H 
ATOM     78 H78  LIG A   1      20.320  11.970  13.599  1.00 20.00    +0.043 H 
ATOM     79 H79  LIG A   1      21.424  10.397  14.945  1.00 20.00    +0.118 HD
ATOM     80 H80  LIG A   1      20.090   9.474  15.109  1.00 20.00    +0.118 HD
ATOM     81 H81  LIG A   1      21.135  16.157   7.863  1.00 20.00    +0.064 H 
ATOM     82 H82  LIG A   1      21.873  18.463   7.789  1.00 20.00    +0.063 H 
ATOM     83 H83  LIG A   1      23.769  23.608  10.748  1.00 20.00    +0.050 H 
ATOM     84 H84  LIG A   1      24.753  22.185  10.507  1.00 20.00    +0.050 H 
ATOM     85 H85  LIG A   1      24.638  22.388   8.157  1.00 20.00    +0.029 H 
ATOM     86 H86  LIG A   1      24.885  23.996   8.766  1.00 20.00    +0.029 H 
ATOM     87 H87  LIG A   1      23.468  23.950   6.841  1.00 20.00    +0.028 H 
ATOM     88 H88  LIG A   1      22.326  22.872   7.537  1.00 20.00    +0.028 H 
ATOM     89 H89  LIG A   1      22.902  25.761   8.394  1.00 20.00    +0.047 H 
ATOM     90 H90  LIG A   1      21.201  25.981   5.375  1.00 20.00    +0.296 HD
ATOM     91 H91  LIG A   1      23.249  23.364  12.562  1.00 20.00    +0.057 H 
ATOM     92 H92  LIG A   1      23.532  20.785  13.899  1.00 20.00    +0.119 HD
ATOM     93 H93  LIG A   1      24.575  21.325  12.781  1.00 20.00    +0.119 HD
ATOM     94 H94  LIG A   1      18.158  17.970  10.596  1.00 20.00    +0.293 HD
ATOM     95 H95  LIG A   1      18.717  20.046  11.339  1.00 20.00    +0.066 H 
ATOM     96 H96  LIG A   1      20.600  21.588  11.784  1.00 20.00    +0.062 H 
ATOM     97 H97  LIG A   1      22.932  20.888  11.309  1.00 20.00    +0.062 H 
ATOM     98 H98  LIG A   1      23.388  18.624  10.379  1.00 20.00    +0.066 H 
ATOM     99 H99  LIG A   1      20.681  16.429   9.732  1.00 20.00    +0.293 HD
ENDROOT
TORSDOF 0
                                                                                                      
ENDMDL
MODEL 5
REMARK VINA RESULT:   -10.502      1.522      1.950
REMARK INTER + INTRA:         -10.502
REMARK INTER:                 -10.502
REMARK INTRA:                   0.000
REMARK UNBOUND:                 0.000
ROOT
ATOM      1 C1   LIG A   1      17.529  13.145  10.667  1.00 20.00    -0.060 C 
ATOM      2 C2   LIG A   1      18.475  14.293  10.263  1.00 20.00    -0.016 C 
ATOM      3 C3   LIG A   1      19.948  13.760  10.298  1.00 20.00    -0.023 C 
ATOM      4 C4   LIG A   1      20.591  13.591   8.944  1.00 20.00    -0.044 A 
ATOM      5 C5   LIG A   1      20.182  12.581   8.073  1.00 20.00    -0.058 A 
ATOM      6 C6   LIG A   1      20.461  12.689   6.713  1.00 20.00    -0.054 A 
ATOM      7 C7   LIG A   1      21.116  13.827   6.206  1.00 20.00    +0.009 A 
ATOM      8 C8   LIG A   1      21.656  14.756   7.114  1.00 20.00    +0.130 A 
ATOM      9 C9   LIG A   1      21.453  14.593   8.484  1.00 20.00    -0.016 A 
ATOM     10 O10  LIG A   1      22.279  15.876   6.608  1.00 20.00    -0.464 OA
ATOM     11 C11  LIG A   1      22.143  17.074   7.278  1.00 20.00    +0.104 C 
ATOM     12 C12  LIG A   1      21.056  17.871   7.365  1.00 20.00    +0.082 C 
ATOM     13 C13  LIG A   1      21.208  19.192   8.013  1.00 20.00    -0.010 A 
ATOM     14 C14  LIG A   1      21.633  19.289   9.343  1.00 20.00    -0.052 A 
ATOM     15 C15  LIG A   1      21.791  20.538   9.954  1.00 20.00    -0.038 A 
ATOM     16 C16  LIG A   1      21.552  21.730   9.256  1.00 20.00    +0.034 A 
ATOM     17 N17  LIG A   1      21.665  22.937   9.952  1.00 20.00    -0.385 NA
ATOM     18 C18  LIG A   1      21.669  24.203   9.224  1.00 20.00    +0.016 C 
ATOM     19 C19  LIG A   1      21.828  25.382  10.189  1.00 20.00    -0.023 C 
ATOM     20 C20  LIG A   1      20.593  25.644  11.064  1.00 20.00    -0.003 C 
ATOM     21 N21  LIG A   1      20.245  24.566  11.993  1.00 20.00    -0.317 NA
ATOM     22 C22  LIG A   1      21.131  24.451  13.150  1.00 20.00    -0.005 C 
ATOM     23 C23  LIG A   1      20.938  25.537  14.215  1.00 20.00    -0.039 C 
ATOM     24 C24  LIG A   1      19.670  25.406  15.068  1.00 20.00    -0.040 C 
ATOM     25 C25  LIG A   1      18.363  25.514  14.287  1.00 20.00    -0.008 C 
ATOM     26 N26  LIG A   1      17.238  25.624  15.218  1.00 20.00    -0.330 NA
ATOM     27 C27  LIG A   1      21.082  21.624   7.944  1.00 20.00    -0.038 A 
ATOM     28 C28  LIG A   1      20.928  20.376   7.325  1.00 20.00    -0.052 A 
ATOM     29 C29  LIG A   1      19.764  17.502   6.685  1.00 20.00    +0.264 C 
ATOM     30 O30  LIG A   1      19.309  18.219   5.794  1.00 20.00    -0.268 OA
ATOM     31 N31  LIG A   1      19.151  16.323   7.092  1.00 20.00    -0.277 NA
ATOM     32 C32  LIG A   1      18.415  15.574   6.065  1.00 20.00    +0.029 C 
ATOM     33 C33  LIG A   1      18.924  15.575   4.605  1.00 20.00    -0.034 C 
ATOM     34 C34  LIG A   1      20.420  15.388   4.281  1.00 20.00    -0.034 C 
ATOM     35 C35  LIG A   1      21.106  14.063   4.703  1.00 20.00    +0.085 C 
ATOM     36 C36  LIG A   1      22.508  13.954   4.105  1.00 20.00    +0.311 C 
ATOM     37 O37  LIG A   1      23.552  13.689   4.679  1.00 20.00    -0.252 OA
ATOM     38 O38  LIG A   1      22.519  14.116   2.763  1.00 20.00    -0.481 OA
ATOM     39 C39  LIG A   1      18.892  16.148   8.463  1.00 20.00    +0.246 C 
ATOM     40 O40  LIG A   1      19.313  16.920   9.334  1.00 20.00    -0.273 OA
ATOM     41 C41  LIG A   1      17.990  14.958   8.925  1.00 20.00    +0.088 C 
ATOM     42 N42  LIG A   1      16.619  15.501   9.103  1.00 20.00    -0.320 NA
ATOM     43 O43  LIG A   1      21.750  20.371  10.053  1.00 20.00    -0.504 OA
ATOM     44 C44  LIG A   1      20.897  19.436   9.534  1.00 20.00    +0.157 A 
ATOM     45 C45  LIG A   1      21.086  18.075   9.742  1.00 20.00    -0.016 A 
ATOM     46 C46  LIG A   1      20.178  17.169   9.183  1.00 20.00    -0.058 A 
ATOM     47 C47  LIG A   1      19.097  17.629   8.426  1.00 20.00    -0.058 A 
ATOM     48 C48  LIG A   1      18.914  18.998   8.224  1.00 20.00    -0.016 A 
ATOM     49 C49  LIG A   1      19.818  19.891   8.780  1.00 20.00    +0.157 A 
ATOM     50 O50  LIG A   1      19.640  21.230   8.583  1.00 20.00    -0.504 OA
ATOM     51 H51  LIG A   1      16.499  13.495  10.793  1.00 20.00    +0.023 H 
ATOM     52 H52  LIG A   1      17.528  12.348   9.918  1.00 20.00    +0.023 H 
ATOM     53 H53  LIG A   1      17.834  12.712  11.626  1.00 20.00    +0.023 H 
ATOM     54 H54  LIG A   1      18.404  15.041  11.066  1.00 20.00    +0.032 H 
ATOM     55 H55  LIG A   1      20.549  14.463  10.892  1.00 20.00    +0.032 H 
ATOM     56 H56  LIG A   1      20.016  12.809  10.842  1.00 20.00    +0.032 H 
ATOM     57 H57  LIG A   1      19.560  11.761   8.428  1.00 20.00    +0.063 H 
ATOM     58 H58  LIG A   1      20.070  11.928   6.039  1.00 20.00    +0.063 H 
ATOM     59 H59  LIG A   1      21.819  15.343   9.183  1.00 20.00    +0.067 H 
ATOM     60 H60  LIG A   1      23.114  17.358   7.671  1.00 20.00    +0.105 H 
ATOM     61 H61  LIG A   1      21.815  18.390   9.931  1.00 20.00    +0.063 H 
ATOM     62 H62  LIG A   1      22.094  20.570  10.998  1.00 20.00    +0.064 H 
ATOM     63 H63  LIG A   1      22.394  22.882  10.661  1.00 20.00    +0.160 HD
ATOM     64 H64  LIG A   1      22.506  24.215   8.516  1.00 20.00    +0.049 H 
ATOM     65 H65  LIG A   1      20.738  24.331   8.659  1.00 20.00    +0.049 H 
ATOM     66 H66  LIG A   1      22.002  26.285   9.588  1.00 20.00    +0.030 H 
ATOM     67 H67  LIG A   1      22.722  25.250  10.809  1.00 20.00    +0.030 H 
ATOM     68 H68  LIG A   1      19.731  25.794  10.403  1.00 20.00    +0.043 H 
ATOM     69 H69  LIG A   1      20.718  26.593  11.596  1.00 20.00    +0.043 H 
ATOM     70 H70  LIG A   1      20.290  23.684  11.463  1.00 20.00    +0.122 HD
ATOM     71 H71  LIG A   1      20.951  23.476  13.619  1.00 20.00    +0.043 H 
ATOM     72 H72  LIG A   1      22.179  24.437  12.832  1.00 20.00    +0.043 H 
ATOM     73 H73  LIG A   1      20.978  26.537  13.768  1.00 20.00    +0.028 H 
ATOM     74 H74  LIG A   1      21.797  25.485  14.898  1.00 20.00    +0.028 H 
ATOM     75 H75  LIG A   1      19.705  26.196  15.831  1.00 20.00    +0.028 H 
ATOM     76 H76  LIG A   1      19.694  24.452  15.610  1.00 20.00    +0.028 H 
ATOM     77 H77  LIG A   1      18.374  26.391  13.630  1.00 20.00    +0.043 H 
ATOM     78 H78  LIG A   1      18.208  24.624  13.672  1.00 20.00    +0.043 H 
ATOM     79 H79  LIG A   1      16.373  25.682  14.681  1.00 20.00    +0.118 HD
ATOM     80 H80  LIG A   1      17.314  26.501  15.732  1.00 20.00    +0.118 HD
ATOM     81 H81  LIG A   1      20.824  22.505   7.366  1.00 20.00    +0.064 H 
ATOM     82 H82  LIG A   1      20.576  20.347   6.294  1.00 20.00    +0.063 H 
ATOM     83 H83  LIG A   1      18.352  14.527   6.357  1.00 20.00    +0.050 H 
ATOM     84 H84  LIG A   1      17.385  15.954   6.074  1.00 20.00    +0.050 H 
ATOM     85 H85  LIG A   1      18.610  16.517   4.137  1.00 20.00    +0.029 H 
ATOM     86 H86  LIG A   1      18.363  14.799   4.065  1.00 20.00    +0.029 H 
ATOM     87 H87  LIG A   1      20.487  15.459   3.187  1.00 20.00    +0.028 H 
ATOM     88 H88  LIG A   1      20.989  16.254   4.625  1.00 20.00    +0.028 H 
ATOM     89 H89  LIG A   1      20.540  13.244   4.237  1.00 20.00    +0.047 H 
ATOM     90 H90  LIG A   1      23.462  14.004   2.521  1.00 20.00    +0.296 HD
ATOM     91 H91  LIG A   1      17.922  14.174   8.176  1.00 20.00    +0.057 H 
ATOM     92 H92  LIG A   1      16.649  16.186   9.864  1.00 20.00    +0.119 HD
ATOM     93 H93  LIG A   1      16.346  16.037   8.278  1.00 20.00    +0.119 HD
ATOM     94 H94  LIG A   1      22.428  19.904  10.572  1.00 20.00    +0.293 HD
ATOM     95 H95  LIG A   1      21.919  17.700  10.327  1.00 20.00    +0.066 H 
ATOM     96 H96  LIG A   1      20.314  16.101   9.336  1.00 20.00    +0.062 H 
ATOM     97 H97  LIG A   1      18.394  16.921   7.995  1.00 20.00    +0.062 H 
ATOM     98 H98  LIG A   1      18.076  19.364   7.640  1.00 20.00    +0.066 H 
ATOM     99 H99  LIG A   1      20.391  21.645   9.053  1.00 20.00    +0.293 HD
ENDROOT
TORSDOF 0
                                                                                                      
ENDMDL
MODEL 6
REMARK VINA RESULT:   -10.501      3.226     11.359
REMARK INTER + INTRA:         -10.501
REMARK INTER:                 -10.501
REMARK INTRA:                   0.000
REMARK UNBOUND:                 0.000
ROOT
ATOM      1 C1   LIG A   1      18.108  30.152   9.794  1.00 20.00    -0.060 C 
ATOM      2 C2   LIG A   1      18.970  28.989  10.325  1.00 20.00    -0.016 C 
ATOM      3 C3   LIG A   1      20.455  29.479  10.433  1.00 20.00    -0.023 C 
ATOM      4 C4   LIG A   1      20.956  29.666  11.842  1.00 20.00    -0.044 A 
ATOM      5 C5   LIG A   1      20.490  30.711  12.641  1.00 20.00    -0.058 A 
ATOM      6 C6   LIG A   1      20.621  30.633  14.025  1.00 20.00    -0.054 A 
ATOM      7 C7   LIG A   1      21.183  29.490  14.626  1.00 20.00    +0.009 A 
ATOM      8 C8   LIG A   1      21.786  28.521  13.803  1.00 20.00    +0.130 A 
ATOM      9 C9   LIG A   1      21.734  28.653  12.416  1.00 20.00    -0.016 A 
ATOM     10 O10  LIG A   1      22.316  27.399  14.400  1.00 20.00    -0.464 OA
ATOM     11 C11  LIG A   1      22.215  26.187  13.748  1.00 20.00    +0.104 C 
ATOM     12 C12  LIG A   1      21.117  25.420  13.565  1.00 20.00    +0.082 C 
ATOM     13 C13  LIG A   1      21.296  24.078  12.969  1.00 20.00    -0.010 A 
ATOM     14 C14  LIG A   1      21.855  23.932  11.694  1.00 20.00    -0.052 A 
ATOM     15 C15  LIG A   1      22.038  22.662  11.134  1.00 20.00    -0.038 A 
ATOM     16 C16  LIG A   1      21.689  21.497  11.832  1.00 20.00    +0.034 A 
ATOM     17 N17  LIG A   1      21.837  20.269  11.181  1.00 20.00    -0.385 NA
ATOM     18 C18  LIG A   1      21.724  19.024  11.936  1.00 20.00    +0.016 C 
ATOM     19 C19  LIG A   1      21.947  17.815  11.022  1.00 20.00    -0.023 C 
ATOM     20 C20  LIG A   1      20.803  17.565  10.028  1.00 20.00    -0.003 C 
ATOM     21 N21  LIG A   1      20.588  18.626   9.041  1.00 20.00    -0.317 NA
ATOM     22 C22  LIG A   1      21.594  18.684   7.982  1.00 20.00    -0.005 C 
ATOM     23 C23  LIG A   1      21.481  17.576   6.929  1.00 20.00    -0.039 C 
ATOM     24 C24  LIG A   1      20.314  17.719   5.944  1.00 20.00    -0.040 C 
ATOM     25 C25  LIG A   1      18.930  17.670   6.584  1.00 20.00    -0.008 C 
ATOM     26 N26  LIG A   1      17.906  17.567   5.542  1.00 20.00    -0.330 NA
ATOM     27 C27  LIG A   1      21.087  21.652  13.083  1.00 20.00    -0.038 A 
ATOM     28 C28  LIG A   1      20.908  22.922  13.653  1.00 20.00    -0.052 A 
ATOM     29 C29  LIG A   1      19.774  25.844  14.096  1.00 20.00    +0.264 C 
ATOM     30 O30  LIG A   1      19.206  25.164  14.951  1.00 20.00    -0.268 OA
ATOM     31 N31  LIG A   1      19.245  27.029  13.597  1.00 20.00    -0.277 NA
ATOM     32 C32  LIG A   1      18.428  27.826  14.522  1.00 20.00    +0.029 C 
ATOM     33 C33  LIG A   1      18.780  27.850  16.028  1.00 20.00    -0.034 C 
ATOM     34 C34  LIG A   1      20.239  28.003  16.504  1.00 20.00    -0.034 C 
ATOM     35 C35  LIG A   1      21.007  29.296  16.125  1.00 20.00    +0.085 C 
ATOM     36 C36  LIG A   1      22.341  29.381  16.865  1.00 20.00    +0.311 C 
ATOM     37 O37  LIG A   1      23.448  29.600  16.399  1.00 20.00    -0.252 OA
ATOM     38 O38  LIG A   1      22.205  29.255  18.204  1.00 20.00    -0.481 OA
ATOM     39 C39  LIG A   1      19.136  27.173  12.203  1.00 20.00    +0.246 C 
ATOM     40 O40  LIG A   1      19.623  26.366  11.400  1.00 20.00    -0.273 OA
ATOM     41 C41  LIG A   1      18.327  28.375  11.620  1.00 20.00    +0.088 C 
ATOM     42 N42  LIG A   1      16.965  27.867  11.310  1.00 20.00    -0.320 NA
ATOM     43 O43  LIG A   1      22.012  22.827  11.027  1.00 20.00    -0.504 OA
ATOM     44 C44  LIG A   1      21.139  23.801  11.430  1.00 20.00    +0.157 A 
ATOM     45 C45  LIG A   1      21.391  25.150  11.211  1.00 20.00    -0.016 A 
ATOM     46 C46  LIG A   1      20.459  26.096  11.648  1.00 20.00    -0.058 A 
ATOM     47 C47  LIG A   1      19.290  25.689  12.297  1.00 20.00    -0.058 A 
ATOM     48 C48  LIG A   1      19.044  24.331  12.511  1.00 20.00    -0.016 A 
ATOM     49 C49  LIG A   1      19.973  23.398  12.076  1.00 20.00    +0.157 A 
ATOM     50 O50  LIG A   1      19.733  22.070  12.286  1.00 20.00    -0.504 OA
ATOM     51 H51  LIG A   1      17.087  29.829   9.569  1.00 20.00    +0.023 H 
ATOM     52 H52  LIG A   1      18.053  30.970  10.520  1.00 20.00    +0.023 H 
ATOM     53 H53  LIG A   1      18.526  30.551   8.864  1.00 20.00    +0.023 H 
ATOM     54 H54  LIG A   1      18.960  28.222   9.537  1.00 20.00    +0.032 H 
ATOM     55 H55  LIG A   1      21.092  28.743   9.923  1.00 20.00    +0.032 H 
ATOM     56 H56  LIG A   1      20.609  30.413   9.877  1.00 20.00    +0.032 H 
ATOM     57 H57  LIG A   1      19.935  31.539  12.203  1.00 20.00    +0.063 H 
ATOM     58 H58  LIG A   1      20.185  31.422  14.635  1.00 20.00    +0.063 H 
ATOM     59 H59  LIG A   1      22.147  27.874  11.778  1.00 20.00    +0.067 H 
ATOM     60 H60  LIG A   1      23.212  25.864  13.467  1.00 20.00    +0.105 H 
ATOM     61 H61  LIG A   1      22.126  24.809  11.108  1.00 20.00    +0.063 H 
ATOM     62 H62  LIG A   1      22.448  22.593  10.130  1.00 20.00    +0.064 H 
ATOM     63 H63  LIG A   1      22.637  20.283  10.553  1.00 20.00    +0.160 HD
ATOM     64 H64  LIG A   1      22.481  19.007  12.729  1.00 20.00    +0.049 H 
ATOM     65 H65  LIG A   1      20.735  18.938  12.402  1.00 20.00    +0.049 H 
ATOM     66 H66  LIG A   1      22.028  16.924  11.660  1.00 20.00    +0.030 H 
ATOM     67 H67  LIG A   1      22.904  17.904  10.497  1.00 20.00    +0.030 H 
ATOM     68 H68  LIG A   1      19.871  17.457  10.596  1.00 20.00    +0.043 H 
ATOM     69 H69  LIG A   1      20.953  16.598   9.535  1.00 20.00    +0.043 H 
ATOM     70 H70  LIG A   1      20.605  19.521   9.551  1.00 20.00    +0.122 HD
ATOM     71 H71  LIG A   1      21.496  19.651   7.473  1.00 20.00    +0.043 H 
ATOM     72 H72  LIG A   1      22.603  18.677   8.409  1.00 20.00    +0.043 H 
ATOM     73 H73  LIG A   1      21.442  16.587   7.401  1.00 20.00    +0.028 H 
ATOM     74 H74  LIG A   1      22.408  17.584   6.340  1.00 20.00    +0.028 H 
ATOM     75 H75  LIG A   1      20.405  16.908   5.208  1.00 20.00    +0.028 H 
ATOM     76 H76  LIG A   1      20.425  18.657   5.384  1.00 20.00    +0.028 H 
ATOM     77 H77  LIG A   1      18.844  16.812   7.259  1.00 20.00    +0.043 H 
ATOM     78 H78  LIG A   1      18.738  18.581   7.158  1.00 20.00    +0.043 H 
ATOM     79 H79  LIG A   1      16.988  17.548   5.985  1.00 20.00    +0.118 HD
ATOM     80 H80  LIG A   1      18.008  16.675   5.060  1.00 20.00    +0.118 HD
ATOM     81 H81  LIG A   1      20.741  20.796  13.652  1.00 20.00    +0.064 H 
ATOM     82 H82  LIG A   1      20.450  22.989  14.639  1.00 20.00    +0.063 H 
ATOM     83 H83  LIG A   1      18.429  28.866  14.200  1.00 20.00    +0.050 H 
ATOM     84 H84  LIG A   1      17.393  27.476  14.413  1.00 20.00    +0.050 H 
ATOM     85 H85  LIG A   1      18.390  26.931  16.483  1.00 20.00    +0.029 H 
ATOM     86 H86  LIG A   1      18.191  28.657  16.486  1.00 20.00    +0.029 H 
ATOM     87 H87  LIG A   1      20.188  27.960  17.600  1.00 20.00    +0.028 H 
ATOM     88 H88  LIG A   1      20.814  27.112  16.243  1.00 20.00    +0.028 H 
ATOM     89 H89  LIG A   1      20.421  30.144  16.508  1.00 20.00    +0.047 H 
ATOM     90 H90  LIG A   1      23.121  29.347  18.542  1.00 20.00    +0.296 HD
ATOM     91 H91  LIG A   1      18.205  29.181  12.337  1.00 20.00    +0.057 H 
ATOM     92 H92  LIG A   1      17.054  27.161  10.573  1.00 20.00    +0.119 HD
ATOM     93 H93  LIG A   1      16.590  27.362  12.114  1.00 20.00    +0.119 HD
ATOM     94 H94  LIG A   1      22.755  23.261  10.572  1.00 20.00    +0.293 HD
ATOM     95 H95  LIG A   1      22.293  25.485  10.709  1.00 20.00    +0.066 H 
ATOM     96 H96  LIG A   1      20.643  27.156  11.485  1.00 20.00    +0.062 H 
ATOM     97 H97  LIG A   1      18.568  26.428  12.634  1.00 20.00    +0.062 H 
ATOM     98 H98  LIG A   1      18.138  24.005  13.012  1.00 20.00    +0.066 H 
ATOM     99 H99  LIG A   1      20.516  21.621  11.908  1.00 20.00    +0.293 HD
ENDROOT
TORSDOF 0
                                                                                                      
ENDMDL
MODEL 7
REMARK VINA RESULT:   -10.307      4.194      7.055
REMARK INTER + INTRA:         -10.307
REMARK INTER:                 -10.307
REMARK INTRA:                   0.000
REMARK UNBOUND:                 0.000
ROOT
ATOM      1 C1   LIG A   1      20.770  22.473   6.571  1.00 20.00    -0.060 C 
ATOM      2 C2   LIG A   1      20.521  22.694   8.076  1.00 20.00    -0.016 C 
ATOM      3 C3   LIG A   1      19.951  21.368   8.686  1.00 20.00    -0.023 C 
ATOM      4 C4   LIG A   1      20.904  20.630   9.592  1.00 20.00    -0.044 A 
ATOM      5 C5   LIG A   1      22.029  19.981   9.081  1.00 20.00    -0.058 A 
ATOM      6 C6   LIG A   1      23.095  19.681   9.925  1.00 20.00    -0.054 A 
ATOM      7 C7   LIG A   1      23.062  20.063  11.280  1.00 20.00    +0.009 A 
ATOM      8 C8   LIG A   1      21.863  20.572  11.810  1.00 20.00    +0.130 A 
ATOM      9 C9   LIG A   1      20.765  20.783  10.977  1.00 20.00    -0.016 A 
ATOM     10 O10  LIG A   1      21.848  20.959  13.132  1.00 20.00    -0.464 OA
ATOM     11 C11  LIG A   1      21.101  22.061  13.494  1.00 20.00    +0.104 C 
ATOM     12 C12  LIG A   1      21.351  23.366  13.244  1.00 20.00    +0.082 C 
ATOM     13 C13  LIG A   1      20.480  24.377  13.880  1.00 20.00    -0.010 A 
ATOM     14 C14  LIG A   1      19.102  24.388  13.634  1.00 20.00    -0.052 A 
ATOM     15 C15  LIG A   1      18.273  25.336  14.245  1.00 20.00    -0.038 A 
ATOM     16 C16  LIG A   1      18.786  26.290  15.136  1.00 20.00    +0.034 A 
ATOM     17 N17  LIG A   1      17.908  27.247  15.655  1.00 20.00    -0.385 NA
ATOM     18 C18  LIG A   1      18.329  28.101  16.763  1.00 20.00    +0.016 C 
ATOM     19 C19  LIG A   1      17.199  29.048  17.176  1.00 20.00    -0.023 C 
ATOM     20 C20  LIG A   1      16.908  30.156  16.152  1.00 20.00    -0.003 C 
ATOM     21 N21  LIG A   1      16.424  29.693  14.850  1.00 20.00    -0.317 NA
ATOM     22 C22  LIG A   1      15.039  29.226  14.847  1.00 20.00    -0.005 C 
ATOM     23 C23  LIG A   1      13.987  30.339  14.929  1.00 20.00    -0.039 C 
ATOM     24 C24  LIG A   1      13.799  31.165  13.651  1.00 20.00    -0.040 C 
ATOM     25 C25  LIG A   1      15.033  31.948  13.211  1.00 20.00    -0.008 C 
ATOM     26 N26  LIG A   1      14.672  32.879  12.140  1.00 20.00    -0.330 NA
ATOM     27 C27  LIG A   1      20.168  26.304  15.340  1.00 20.00    -0.038 A 
ATOM     28 C28  LIG A   1      21.002  25.352  14.735  1.00 20.00    -0.052 A 
ATOM     29 C29  LIG A   1      22.573  23.790  12.474  1.00 20.00    +0.264 C 
ATOM     30 O30  LIG A   1      23.432  24.487  13.015  1.00 20.00    -0.268 OA
ATOM     31 N31  LIG A   1      22.683  23.336  11.165  1.00 20.00    -0.277 NA
ATOM     32 C32  LIG A   1      24.040  23.070  10.671  1.00 20.00    +0.029 C 
ATOM     33 C33  LIG A   1      25.115  22.528  11.643  1.00 20.00    -0.034 C 
ATOM     34 C34  LIG A   1      24.793  21.398  12.640  1.00 20.00    -0.034 C 
ATOM     35 C35  LIG A   1      24.357  20.019  12.078  1.00 20.00    +0.085 C 
ATOM     36 C36  LIG A   1      24.304  18.966  13.183  1.00 20.00    +0.311 C 
ATOM     37 O37  LIG A   1      23.394  18.196  13.446  1.00 20.00    -0.252 OA
ATOM     38 O38  LIG A   1      25.460  18.878  13.878  1.00 20.00    -0.481 OA
ATOM     39 C39  LIG A   1      21.610  23.575  10.288  1.00 20.00    +0.246 C 
ATOM     40 O40  LIG A   1      20.522  24.032  10.659  1.00 20.00    -0.273 OA
ATOM     41 C41  LIG A   1      21.797  23.302   8.760  1.00 20.00    +0.088 C 
ATOM     42 N42  LIG A   1      22.133  24.604   8.128  1.00 20.00    -0.320 NA
ATOM     43 O43  LIG A   1      18.233  25.250  14.071  1.00 20.00    -0.504 OA
ATOM     44 C44  LIG A   1      19.223  24.991  13.164  1.00 20.00    +0.157 A 
ATOM     45 C45  LIG A   1      19.197  23.865  12.349  1.00 20.00    -0.016 A 
ATOM     46 C46  LIG A   1      20.241  23.657  11.442  1.00 20.00    -0.058 A 
ATOM     47 C47  LIG A   1      21.295  24.571  11.356  1.00 20.00    -0.058 A 
ATOM     48 C48  LIG A   1      21.312  25.701  12.177  1.00 20.00    -0.016 A 
ATOM     49 C49  LIG A   1      20.274  25.900  13.075  1.00 20.00    +0.157 A 
ATOM     50 O50  LIG A   1      20.291  27.005  13.878  1.00 20.00    -0.504 OA
ATOM     51 H51  LIG A   1      21.039  23.405   6.064  1.00 20.00    +0.023 H 
ATOM     52 H52  LIG A   1      21.575  21.750   6.403  1.00 20.00    +0.023 H 
ATOM     53 H53  LIG A   1      19.866  22.096   6.080  1.00 20.00    +0.023 H 
ATOM     54 H54  LIG A   1      19.708  23.433   8.142  1.00 20.00    +0.032 H 
ATOM     55 H55  LIG A   1      19.043  21.619   9.253  1.00 20.00    +0.032 H 
ATOM     56 H56  LIG A   1      19.607  20.682   7.901  1.00 20.00    +0.032 H 
ATOM     57 H57  LIG A   1      22.125  19.800   8.012  1.00 20.00    +0.063 H 
ATOM     58 H58  LIG A   1      23.993  19.243   9.493  1.00 20.00    +0.063 H 
ATOM     59 H59  LIG A   1      19.857  21.233  11.374  1.00 20.00    +0.067 H 
ATOM     60 H60  LIG A   1      20.287  21.730  14.130  1.00 20.00    +0.105 H 
ATOM     61 H61  LIG A   1      18.662  23.678  12.937  1.00 20.00    +0.063 H 
ATOM     62 H62  LIG A   1      17.213  25.330  14.005  1.00 20.00    +0.064 H 
ATOM     63 H63  LIG A   1      16.977  26.856  15.784  1.00 20.00    +0.160 HD
ATOM     64 H64  LIG A   1      18.595  27.477  17.624  1.00 20.00    +0.049 H 
ATOM     65 H65  LIG A   1      19.207  28.696  16.484  1.00 20.00    +0.049 H 
ATOM     66 H66  LIG A   1      17.498  29.537  18.113  1.00 20.00    +0.030 H 
ATOM     67 H67  LIG A   1      16.289  28.482  17.403  1.00 20.00    +0.030 H 
ATOM     68 H68  LIG A   1      17.837  30.711  15.975  1.00 20.00    +0.043 H 
ATOM     69 H69  LIG A   1      16.217  30.884  16.590  1.00 20.00    +0.043 H 
ATOM     70 H70  LIG A   1      17.029  28.911  14.562  1.00 20.00    +0.122 HD
ATOM     71 H71  LIG A   1      14.872  28.666  13.919  1.00 20.00    +0.043 H 
ATOM     72 H72  LIG A   1      14.873  28.509  15.659  1.00 20.00    +0.043 H 
ATOM     73 H73  LIG A   1      14.190  31.010  15.773  1.00 20.00    +0.028 H 
ATOM     74 H74  LIG A   1      13.023  29.865  15.156  1.00 20.00    +0.028 H 
ATOM     75 H75  LIG A   1      12.969  31.862  13.830  1.00 20.00    +0.028 H 
ATOM     76 H76  LIG A   1      13.476  30.503  12.836  1.00 20.00    +0.028 H 
ATOM     77 H77  LIG A   1      15.456  32.510  14.050  1.00 20.00    +0.043 H 
ATOM     78 H78  LIG A   1      15.801  31.271  12.826  1.00 20.00    +0.043 H 
ATOM     79 H79  LIG A   1      15.509  33.385  11.849  1.00 20.00    +0.118 HD
ATOM     80 H80  LIG A   1      14.030  33.580  12.509  1.00 20.00    +0.118 HD
ATOM     81 H81  LIG A   1      20.636  27.050  15.972  1.00 20.00    +0.064 H 
ATOM     82 H82  LIG A   1      22.071  25.394  14.940  1.00 20.00    +0.063 H 
ATOM     83 H83  LIG A   1      23.993  22.354   9.852  1.00 20.00    +0.050 H 
ATOM     84 H84  LIG A   1      24.408  24.007  10.234  1.00 20.00    +0.050 H 
ATOM     85 H85  LIG A   1      25.499  23.373  12.229  1.00 20.00    +0.029 H 
ATOM     86 H86  LIG A   1      25.970  22.205  11.033  1.00 20.00    +0.029 H 
ATOM     87 H87  LIG A   1      25.721  21.243  13.207  1.00 20.00    +0.028 H 
ATOM     88 H88  LIG A   1      24.091  21.754  13.397  1.00 20.00    +0.028 H 
ATOM     89 H89  LIG A   1      25.157  19.678  11.405  1.00 20.00    +0.047 H 
ATOM     90 H90  LIG A   1      25.289  18.164  14.528  1.00 20.00    +0.296 HD
ATOM     91 H91  LIG A   1      22.628  22.631   8.557  1.00 20.00    +0.057 H 
ATOM     92 H92  LIG A   1      21.325  25.224   8.240  1.00 20.00    +0.119 HD
ATOM     93 H93  LIG A   1      22.887  25.059   8.644  1.00 20.00    +0.119 HD
ATOM     94 H94  LIG A   1      17.565  24.547  13.994  1.00 20.00    +0.293 HD
ATOM     95 H95  LIG A   1      18.387  23.145  12.402  1.00 20.00    +0.066 H 
ATOM     96 H96  LIG A   1      20.235  22.780  10.800  1.00 20.00    +0.062 H 
ATOM     97 H97  LIG A   1      22.103  24.405  10.649  1.00 20.00    +0.062 H 
ATOM     98 H98  LIG A   1      22.125  26.417  12.115  1.00 20.00    +0.066 H 
ATOM     99 H99  LIG A   1      19.478  26.922  14.418  1.00 20.00    +0.293 HD
ENDROOT
TORSDOF 0
                                                                                                      
ENDMDL
MODEL 8
REMARK VINA RESULT:   -10.177      2.464      5.111
REMARK INTER + INTRA:         -10.177
REMARK INTER:                 -10.177
REMARK INTRA:                   0.000
REMARK UNBOUND:                 0.000
ROOT
ATOM      1 C1   LIG A   1      20.250  16.780   4.103  1.00 20.00    -0.060 C 
ATOM      2 C2   LIG A   1      19.974  17.346   5.510  1.00 20.00    -0.016 C 
ATOM      3 C3   LIG A   1      18.447  17.178   5.823  1.00 20.00    -0.023 C 
ATOM      4 C4   LIG A   1      18.126  16.135   6.863  1.00 20.00    -0.044 A 
ATOM      5 C5   LIG A   1      18.281  14.775   6.592  1.00 20.00    -0.058 A 
ATOM      6 C6   LIG A   1      18.395  13.871   7.645  1.00 20.00    -0.054 A 
ATOM      7 C7   LIG A   1      18.396  14.323   8.978  1.00 20.00    +0.009 A 
ATOM      8 C8   LIG A   1      18.084  15.671   9.235  1.00 20.00    +0.130 A 
ATOM      9 C9   LIG A   1      17.878  16.554   8.175  1.00 20.00    -0.016 A 
ATOM     10 O10  LIG A   1      18.106  16.107  10.541  1.00 20.00    -0.464 OA
ATOM     11 C11  LIG A   1      18.555  17.384  10.809  1.00 20.00    +0.104 C 
ATOM     12 C12  LIG A   1      19.820  17.858  10.760  1.00 20.00    +0.082 C 
ATOM     13 C13  LIG A   1      20.069  19.231  11.251  1.00 20.00    -0.010 A 
ATOM     14 C14  LIG A   1      19.423  20.326  10.666  1.00 20.00    -0.052 A 
ATOM     15 C15  LIG A   1      19.647  21.625  11.138  1.00 20.00    -0.038 A 
ATOM     16 C16  LIG A   1      20.505  21.873  12.219  1.00 20.00    +0.034 A 
ATOM     17 N17  LIG A   1      20.732  23.202  12.589  1.00 20.00    -0.385 NA
ATOM     18 C18  LIG A   1      21.412  23.504  13.846  1.00 20.00    +0.016 C 
ATOM     19 C19  LIG A   1      21.525  25.017  14.051  1.00 20.00    -0.023 C 
ATOM     20 C20  LIG A   1      22.518  25.703  13.101  1.00 20.00    -0.003 C 
ATOM     21 N21  LIG A   1      22.172  25.637  11.679  1.00 20.00    -0.317 NA
ATOM     22 C22  LIG A   1      21.073  26.514  11.280  1.00 20.00    -0.005 C 
ATOM     23 C23  LIG A   1      21.435  28.002  11.202  1.00 20.00    -0.039 C 
ATOM     24 C24  LIG A   1      22.304  28.408  10.006  1.00 20.00    -0.040 C 
ATOM     25 C25  LIG A   1      23.684  27.759   9.972  1.00 20.00    -0.008 C 
ATOM     26 N26  LIG A   1      24.506  28.397   8.941  1.00 20.00    -0.330 NA
ATOM     27 C27  LIG A   1      21.184  20.781  12.766  1.00 20.00    -0.038 A 
ATOM     28 C28  LIG A   1      20.958  19.477  12.302  1.00 20.00    -0.052 A 
ATOM     29 C29  LIG A   1      20.970  16.969  10.370  1.00 20.00    +0.264 C 
ATOM     30 O30  LIG A   1      21.871  16.736  11.176  1.00 20.00    -0.268 OA
ATOM     31 N31  LIG A   1      20.938  16.420   9.093  1.00 20.00    -0.277 NA
ATOM     32 C32  LIG A   1      21.525  15.083   8.936  1.00 20.00    +0.029 C 
ATOM     33 C33  LIG A   1      21.416  14.059  10.090  1.00 20.00    -0.034 C 
ATOM     34 C34  LIG A   1      20.094  13.859  10.857  1.00 20.00    -0.034 C 
ATOM     35 C35  LIG A   1      18.851  13.366  10.070  1.00 20.00    +0.085 C 
ATOM     36 C36  LIG A   1      17.708  13.005  11.017  1.00 20.00    +0.311 C 
ATOM     37 O37  LIG A   1      16.544  13.368  10.963  1.00 20.00    -0.252 OA
ATOM     38 O38  LIG A   1      18.077  12.121  11.970  1.00 20.00    -0.481 OA
ATOM     39 C39  LIG A   1      20.777  17.291   8.001  1.00 20.00    +0.246 C 
ATOM     40 O40  LIG A   1      20.514  18.493   8.128  1.00 20.00    -0.273 OA
ATOM     41 C41  LIG A   1      20.983  16.744   6.552  1.00 20.00    +0.088 C 
ATOM     42 N42  LIG A   1      22.375  17.086   6.156  1.00 20.00    -0.320 NA
ATOM     43 O43  LIG A   1      19.593  21.583  10.952  1.00 20.00    -0.504 OA
ATOM     44 C44  LIG A   1      20.088  20.485  10.304  1.00 20.00    +0.157 A 
ATOM     45 C45  LIG A   1      19.321  19.755   9.402  1.00 20.00    -0.016 A 
ATOM     46 C46  LIG A   1      19.886  18.642   8.773  1.00 20.00    -0.058 A 
ATOM     47 C47  LIG A   1      21.205  18.268   9.047  1.00 20.00    -0.058 A 
ATOM     48 C48  LIG A   1      21.969  19.008   9.952  1.00 20.00    -0.016 A 
ATOM     49 C49  LIG A   1      21.402  20.111  10.574  1.00 20.00    +0.157 A 
ATOM     50 O50  LIG A   1      22.149  20.834  11.459  1.00 20.00    -0.504 OA
ATOM     51 H51  LIG A   1      21.272  16.992   3.775  1.00 20.00    +0.023 H 
ATOM     52 H52  LIG A   1      20.102  15.695   4.074  1.00 20.00    +0.023 H 
ATOM     53 H53  LIG A   1      19.580  17.234   3.364  1.00 20.00    +0.023 H 
ATOM     54 H54  LIG A   1      20.152  18.429   5.441  1.00 20.00    +0.032 H 
ATOM     55 H55  LIG A   1      18.062  18.150   6.163  1.00 20.00    +0.032 H 
ATOM     56 H56  LIG A   1      17.874  16.957   4.912  1.00 20.00    +0.032 H 
ATOM     57 H57  LIG A   1      18.415  14.426   5.570  1.00 20.00    +0.063 H 
ATOM     58 H58  LIG A   1      18.590  12.825   7.414  1.00 20.00    +0.063 H 
ATOM     59 H59  LIG A   1      17.695  17.609   8.372  1.00 20.00    +0.067 H 
ATOM     60 H60  LIG A   1      17.721  17.969  11.182  1.00 20.00    +0.105 H 
ATOM     61 H61  LIG A   1      18.761  20.184   9.813  1.00 20.00    +0.063 H 
ATOM     62 H62  LIG A   1      19.149  22.451  10.637  1.00 20.00    +0.064 H 
ATOM     63 H63  LIG A   1      19.901  23.769  12.440  1.00 20.00    +0.160 HD
ATOM     64 H64  LIG A   1      20.843  23.079  14.681  1.00 20.00    +0.049 H 
ATOM     65 H65  LIG A   1      22.418  23.068  13.859  1.00 20.00    +0.049 H 
ATOM     66 H66  LIG A   1      21.877  25.191  15.076  1.00 20.00    +0.030 H 
ATOM     67 H67  LIG A   1      20.537  25.487  13.983  1.00 20.00    +0.030 H 
ATOM     68 H68  LIG A   1      23.495  25.220  13.220  1.00 20.00    +0.043 H 
ATOM     69 H69  LIG A   1      22.669  26.741  13.419  1.00 20.00    +0.043 H 
ATOM     70 H70  LIG A   1      21.898  24.665  11.479  1.00 20.00    +0.122 HD
ATOM     71 H71  LIG A   1      20.727  26.194  10.290  1.00 20.00    +0.043 H 
ATOM     72 H72  LIG A   1      20.214  26.384  11.949  1.00 20.00    +0.043 H 
ATOM     73 H73  LIG A   1      21.910  28.340  12.131  1.00 20.00    +0.028 H 
ATOM     74 H74  LIG A   1      20.495  28.567  11.130  1.00 20.00    +0.028 H 
ATOM     75 H75  LIG A   1      22.415  29.500  10.037  1.00 20.00    +0.028 H 
ATOM     76 H76  LIG A   1      21.769  28.178   9.074  1.00 20.00    +0.028 H 
ATOM     77 H77  LIG A   1      24.184  27.856  10.942  1.00 20.00    +0.043 H 
ATOM     78 H78  LIG A   1      23.604  26.695   9.729  1.00 20.00    +0.043 H 
ATOM     79 H79  LIG A   1      25.420  27.944   8.923  1.00 20.00    +0.118 HD
ATOM     80 H80  LIG A   1      24.675  29.368   9.203  1.00 20.00    +0.118 HD
ATOM     81 H81  LIG A   1      21.904  20.909  13.566  1.00 20.00    +0.064 H 
ATOM     82 H82  LIG A   1      21.497  18.657  12.773  1.00 20.00    +0.063 H 
ATOM     83 H83  LIG A   1      21.088  14.597   8.065  1.00 20.00    +0.050 H 
ATOM     84 H84  LIG A   1      22.587  15.230   8.700  1.00 20.00    +0.050 H 
ATOM     85 H85  LIG A   1      22.185  14.303  10.834  1.00 20.00    +0.029 H 
ATOM     86 H86  LIG A   1      21.723  13.083   9.687  1.00 20.00    +0.029 H 
ATOM     87 H87  LIG A   1      20.319  13.104  11.622  1.00 20.00    +0.028 H 
ATOM     88 H88  LIG A   1      19.862  14.750  11.442  1.00 20.00    +0.028 H 
ATOM     89 H89  LIG A   1      19.128  12.416   9.591  1.00 20.00    +0.047 H 
ATOM     90 H90  LIG A   1      17.255  11.970  12.481  1.00 20.00    +0.296 HD
ATOM     91 H91  LIG A   1      20.900  15.662   6.500  1.00 20.00    +0.057 H 
ATOM     92 H92  LIG A   1      22.448  18.108   6.120  1.00 20.00    +0.119 HD
ATOM     93 H93  LIG A   1      23.025  16.802   6.889  1.00 20.00    +0.119 HD
ATOM     94 H94  LIG A   1      18.684  21.730  10.639  1.00 20.00    +0.293 HD
ATOM     95 H95  LIG A   1      18.296  20.030   9.177  1.00 20.00    +0.066 H 
ATOM     96 H96  LIG A   1      19.298  18.060   8.067  1.00 20.00    +0.062 H 
ATOM     97 H97  LIG A   1      21.639  17.402   8.555  1.00 20.00    +0.062 H 
ATOM     98 H98  LIG A   1      22.995  18.727  10.170  1.00 20.00    +0.066 H 
ATOM     99 H99  LIG A   1      21.544  21.540  11.765  1.00 20.00    +0.293 HD
ENDROOT
TORSDOF 0
                                                                                                      
ENDMDL
MODEL 9
REMARK VINA RESULT:   -10.030      2.873      4.187
REMARK INTER + INTRA:         -10.030
REMARK INTER:                 -10.030
REMARK INTRA:                   0.000
REMARK UNBOUND:                 0.000
ROOT
ATOM      1 C1   LIG A   1      17.567  11.570  11.471  1.00 20.00    -0.060 C 
ATOM      2 C2   LIG A   1      18.337  12.654  10.692  1.00 20.00    -0.016 C 
ATOM      3 C3   LIG A   1      19.710  12.055  10.230  1.00 20.00    -0.023 C 
ATOM      4 C4   LIG A   1      19.821  11.798   8.749  1.00 20.00    -0.044 A 
ATOM      5 C5   LIG A   1      19.099  10.771   8.139  1.00 20.00    -0.058 A 
ATOM      6 C6   LIG A   1      18.876  10.806   6.765  1.00 20.00    -0.054 A 
ATOM      7 C7   LIG A   1      19.337  11.891   5.994  1.00 20.00    +0.009 A 
ATOM      8 C8   LIG A   1      20.192  12.832   6.596  1.00 20.00    +0.130 A 
ATOM      9 C9   LIG A   1      20.489  12.738   7.955  1.00 20.00    -0.016 A 
ATOM     10 O10  LIG A   1      20.623  13.899   5.837  1.00 20.00    -0.464 OA
ATOM     11 C11  LIG A   1      20.769  15.130   6.443  1.00 20.00    +0.104 C 
ATOM     12 C12  LIG A   1      19.807  15.979   6.866  1.00 20.00    +0.082 C 
ATOM     13 C13  LIG A   1      20.218  17.319   7.340  1.00 20.00    -0.010 A 
ATOM     14 C14  LIG A   1      21.093  17.453   8.424  1.00 20.00    -0.052 A 
ATOM     15 C15  LIG A   1      21.494  18.720   8.866  1.00 20.00    -0.038 A 
ATOM     16 C16  LIG A   1      21.054  19.890   8.232  1.00 20.00    +0.034 A 
ATOM     17 N17  LIG A   1      21.442  21.120   8.773  1.00 20.00    -0.385 NA
ATOM     18 C18  LIG A   1      21.220  22.351   8.020  1.00 20.00    +0.016 C 
ATOM     19 C19  LIG A   1      21.746  23.562   8.795  1.00 20.00    -0.023 C 
ATOM     20 C20  LIG A   1      20.914  23.918  10.036  1.00 20.00    -0.003 C 
ATOM     21 N21  LIG A   1      20.892  22.899  11.088  1.00 20.00    -0.317 NA
ATOM     22 C22  LIG A   1      22.130  22.794  11.859  1.00 20.00    -0.005 C 
ATOM     23 C23  LIG A   1      22.361  23.933  12.859  1.00 20.00    -0.039 C 
ATOM     24 C24  LIG A   1      21.479  23.898  14.113  1.00 20.00    -0.040 C 
ATOM     25 C25  LIG A   1      19.983  24.032  13.844  1.00 20.00    -0.008 C 
ATOM     26 N26  LIG A   1      19.269  24.234  15.107  1.00 20.00    -0.330 NA
ATOM     27 C27  LIG A   1      20.143  19.749   7.182  1.00 20.00    -0.038 A 
ATOM     28 C28  LIG A   1      19.743  18.483   6.731  1.00 20.00    -0.052 A 
ATOM     29 C29  LIG A   1      18.348  15.641   6.712  1.00 20.00    +0.264 C 
ATOM     30 O30  LIG A   1      17.625  16.339   6.002  1.00 20.00    -0.268 OA
ATOM     31 N31  LIG A   1      17.890  14.510   7.377  1.00 20.00    -0.277 NA
ATOM     32 C32  LIG A   1      16.814  13.753   6.725  1.00 20.00    +0.029 C 
ATOM     33 C33  LIG A   1      16.766  13.667   5.181  1.00 20.00    -0.034 C 
ATOM     34 C34  LIG A   1      18.041  13.397   4.357  1.00 20.00    -0.034 C 
ATOM     35 C35  LIG A   1      18.797  12.061   4.582  1.00 20.00    +0.085 C 
ATOM     36 C36  LIG A   1      19.888  11.862   3.531  1.00 20.00    +0.311 C 
ATOM     37 O37  LIG A   1      21.060  11.574   3.710  1.00 20.00    -0.252 OA
ATOM     38 O38  LIG A   1      19.422  11.964   2.267  1.00 20.00    -0.481 OA
ATOM     39 C39  LIG A   1      18.133  14.408   8.759  1.00 20.00    +0.246 C 
ATOM     40 O40  LIG A   1      18.860  15.196   9.377  1.00 20.00    -0.273 OA
ATOM     41 C41  LIG A   1      17.424  13.282   9.578  1.00 20.00    +0.088 C 
ATOM     42 N42  LIG A   1      16.223  13.895  10.202  1.00 20.00    -0.320 NA
ATOM     43 O43  LIG A   1      21.486  18.560   8.983  1.00 20.00    -0.504 OA
ATOM     44 C44  LIG A   1      20.479  17.643   8.856  1.00 20.00    +0.157 A 
ATOM     45 C45  LIG A   1      20.692  16.284   9.060  1.00 20.00    -0.016 A 
ATOM     46 C46  LIG A   1      19.620  15.398   8.914  1.00 20.00    -0.058 A 
ATOM     47 C47  LIG A   1      18.352  15.874   8.567  1.00 20.00    -0.058 A 
ATOM     48 C48  LIG A   1      18.147  17.240   8.366  1.00 20.00    -0.016 A 
ATOM     49 C49  LIG A   1      19.215  18.114   8.511  1.00 20.00    +0.157 A 
ATOM     50 O50  LIG A   1      19.015  19.450   8.314  1.00 20.00    -0.504 OA
ATOM     51 H51  LIG A   1      16.661  11.972  11.935  1.00 20.00    +0.023 H 
ATOM     52 H52  LIG A   1      17.276  10.741  10.818  1.00 20.00    +0.023 H 
ATOM     53 H53  LIG A   1      18.184  11.164  12.281  1.00 20.00    +0.023 H 
ATOM     54 H54  LIG A   1      18.579  13.439  11.424  1.00 20.00    +0.032 H 
ATOM     55 H55  LIG A   1      20.503  12.755  10.530  1.00 20.00    +0.032 H 
ATOM     56 H56  LIG A   1      19.942  11.126  10.768  1.00 20.00    +0.032 H 
ATOM     57 H57  LIG A   1      18.623   9.997   8.738  1.00 20.00    +0.063 H 
ATOM     58 H58  LIG A   1      18.248  10.037   6.319  1.00 20.00    +0.063 H 
ATOM     59 H59  LIG A   1      21.101  13.500   8.434  1.00 20.00    +0.067 H 
ATOM     60 H60  LIG A   1      21.823  15.386   6.447  1.00 20.00    +0.105 H 
ATOM     61 H61  LIG A   1      21.448  16.574   8.959  1.00 20.00    +0.063 H 
ATOM     62 H62  LIG A   1      22.152  18.783   9.730  1.00 20.00    +0.064 H 
ATOM     63 H63  LIG A   1      22.374  21.062   9.177  1.00 20.00    +0.160 HD
ATOM     64 H64  LIG A   1      21.748  22.294   7.060  1.00 20.00    +0.049 H 
ATOM     65 H65  LIG A   1      20.152  22.497   7.817  1.00 20.00    +0.049 H 
ATOM     66 H66  LIG A   1      21.718  24.429   8.122  1.00 20.00    +0.030 H 
ATOM     67 H67  LIG A   1      22.799  23.417   9.063  1.00 20.00    +0.030 H 
ATOM     68 H68  LIG A   1      19.877  24.080   9.719  1.00 20.00    +0.043 H 
ATOM     69 H69  LIG A   1      21.247  24.883  10.434  1.00 20.00    +0.043 H 
ATOM     70 H70  LIG A   1      20.720  21.994  10.629  1.00 20.00    +0.122 HD
ATOM     71 H71  LIG A   1      22.103  21.850  12.416  1.00 20.00    +0.043 H 
ATOM     72 H72  LIG A   1      22.994  22.717  11.189  1.00 20.00    +0.043 H 
ATOM     73 H73  LIG A   1      22.266  24.910  12.371  1.00 20.00    +0.028 H 
ATOM     74 H74  LIG A   1      23.406  23.871  13.193  1.00 20.00    +0.028 H 
ATOM     75 H75  LIG A   1      21.807  24.717  14.767  1.00 20.00    +0.028 H 
ATOM     76 H76  LIG A   1      21.670  22.968  14.665  1.00 20.00    +0.028 H 
ATOM     77 H77  LIG A   1      19.782  24.878  13.178  1.00 20.00    +0.043 H 
ATOM     78 H78  LIG A   1      19.593  23.124  13.377  1.00 20.00    +0.043 H 
ATOM     79 H79  LIG A   1      18.271  24.309  14.911  1.00 20.00    +0.118 HD
ATOM     80 H80  LIG A   1      19.548  25.128  15.509  1.00 20.00    +0.118 HD
ATOM     81 H81  LIG A   1      19.719  20.615   6.685  1.00 20.00    +0.064 H 
ATOM     82 H82  LIG A   1      19.045  18.426   5.897  1.00 20.00    +0.063 H 
ATOM     83 H83  LIG A   1      16.830  12.723   7.079  1.00 20.00    +0.050 H 
ATOM     84 H84  LIG A   1      15.866  14.179   7.078  1.00 20.00    +0.050 H 
ATOM     85 H85  LIG A   1      16.332  14.601   4.802  1.00 20.00    +0.029 H 
ATOM     86 H86  LIG A   1      16.028  12.894   4.922  1.00 20.00    +0.029 H 
ATOM     87 H87  LIG A   1      17.714  13.417   3.309  1.00 20.00    +0.028 H 
ATOM     88 H88  LIG A   1      18.719  14.249   4.426  1.00 20.00    +0.028 H 
ATOM     89 H89  LIG A   1      18.078  11.249   4.396  1.00 20.00    +0.047 H 
ATOM     90 H90  LIG A   1      20.212  11.798   1.712  1.00 20.00    +0.296 HD
ATOM     91 H91  LIG A   1      17.071  12.469   8.949  1.00 20.00    +0.057 H 
ATOM     92 H92  LIG A   1      16.543  14.610  10.862  1.00 20.00    +0.119 HD
ATOM     93 H93  LIG A   1      15.688  14.406   9.499  1.00 20.00    +0.119 HD
ATOM     94 H94  LIG A   1      22.292  18.084   9.252  1.00 20.00    +0.293 HD
ATOM     95 H95  LIG A   1      21.669  15.897   9.330  1.00 20.00    +0.066 H 
ATOM     96 H96  LIG A   1      19.771  14.332   9.069  1.00 20.00    +0.062 H 
ATOM     97 H97  LIG A   1      17.522  15.181   8.455  1.00 20.00    +0.062 H 
ATOM     98 H98  LIG A   1      17.166  17.619   8.098  1.00 20.00    +0.066 H 
ATOM     99 H99  LIG A   1      19.896  19.850   8.461  1.00 20.00    +0.293 HD
ENDROOT
TORSDOF 0
                                                                                                      
ENDMDL
