ROOT
ATOM      1 C1   LIG A   1      -0.610   0.736   2.594  1.00 20.00    -0.060 C 
ATOM      2 C2   LIG A   1       0.049   0.730   1.208  1.00 20.00    -0.016 C 
ATOM      3 C3   LIG A   1      -0.849   1.424   0.150  1.00 20.00    -0.022 C 
ATOM      4 C4   LIG A   1      -2.049   0.579  -0.270  1.00 20.00    -0.029 A 
ATOM      5 C5   LIG A   1      -1.874  -0.480  -1.214  1.00 20.00    +0.004 A 
ATOM      6 C6   LIG A   1      -0.649  -0.805  -1.856  1.00 20.00    -0.053 A 
ATOM      7 C7   LIG A   1      -0.549  -1.861  -2.762  1.00 20.00    -0.062 A 
ATOM      8 C8   LIG A   1      -1.673  -2.617  -3.051  1.00 20.00    -0.060 A 
ATOM      9 C9   LIG A   1      -2.884  -2.305  -2.435  1.00 20.00    -0.036 A 
ATOM     10 C10  LIG A   1      -3.005  -1.257  -1.531  1.00 20.00    +0.071 A 
ATOM     11 N11  LIG A   1      -4.214  -1.040  -1.003  1.00 20.00    -0.248 NA
ATOM     12 C12  LIG A   1      -4.387  -0.038  -0.134  1.00 20.00    +0.071 A 
ATOM     13 C13  LIG A   1      -5.667   0.145   0.373  1.00 20.00    -0.036 A 
ATOM     14 C14  LIG A   1      -5.965   1.154   1.288  1.00 20.00    -0.060 A 
ATOM     15 C15  LIG A   1      -4.959   2.005   1.711  1.00 20.00    -0.062 A 
ATOM     16 C16  LIG A   1      -3.665   1.839   1.215  1.00 20.00    -0.053 A 
ATOM     17 C17  LIG A   1      -3.345   0.817   0.282  1.00 20.00    +0.004 A 
ATOM     18 C18  LIG A   1       1.469   1.350   1.296  1.00 20.00    +0.087 C 
ATOM     19 N19  LIG A   1       1.436   2.813   1.521  1.00 20.00    -0.320 NA
ATOM     20 C20  LIG A   1       2.292   1.041   0.021  1.00 20.00    +0.240 C 
ATOM     21 O21  LIG A   1       2.338   1.853  -0.909  1.00 20.00    -0.273 OA
ATOM     22 N22  LIG A   1       2.952  -0.164  -0.052  1.00 20.00    -0.328 NA
ATOM     23 C23  LIG A   1       2.956  -1.250   0.910  1.00 20.00    +0.022 C 
ATOM     24 C24  LIG A   1       3.162  -2.478   0.043  1.00 20.00    -0.033 C 
ATOM     25 C25  LIG A   1       4.111  -1.982  -1.041  1.00 20.00    -0.020 C 
ATOM     26 C26  LIG A   1       3.725  -0.511  -1.249  1.00 20.00    +0.129 C 
ATOM     27 C27  LIG A   1       5.004   0.309  -1.447  1.00 20.00    +0.326 C 
ATOM     28 O28  LIG A   1       5.726   0.262  -2.433  1.00 20.00    -0.250 OA
ATOM     29 O29  LIG A   1       5.367   1.061  -0.386  1.00 20.00    -0.480 OA
ATOM     30 O30  LIG A   1       2.429   0.009   0.256  1.00 20.00    -0.504 OA
ATOM     31 C31  LIG A   1       1.088  -0.203   0.090  1.00 20.00    +0.161 A 
ATOM     32 C32  LIG A   1       0.562  -1.474  -0.120  1.00 20.00    -0.016 A 
ATOM     33 C33  LIG A   1      -0.821  -1.625  -0.283  1.00 20.00    -0.055 A 
ATOM     34 C34  LIG A   1      -1.667  -0.512  -0.237  1.00 20.00    -0.016 A 
ATOM     35 C35  LIG A   1      -1.123   0.748  -0.027  1.00 20.00    +0.161 A 
ATOM     36 O36  LIG A   1      -1.946   1.836   0.018  1.00 20.00    -0.504 OA
ATOM     37 C37  LIG A   1       0.247   0.904   0.135  1.00 20.00    +0.200 A 
ATOM     38 O38  LIG A   1       0.756   2.158   0.341  1.00 20.00    -0.502 OA
ATOM     39 H39  LIG A   1      -1.543   0.165   2.591  1.00 20.00    +0.023 H 
ATOM     40 H40  LIG A   1       0.046   0.270   3.337  1.00 20.00    +0.023 H 
ATOM     41 H41  LIG A   1      -0.832   1.754   2.932  1.00 20.00    +0.023 H 
ATOM     42 H42  LIG A   1       0.160  -0.321   0.920  1.00 20.00    +0.032 H 
ATOM     43 H43  LIG A   1      -1.162   2.411   0.503  1.00 20.00    +0.032 H 
ATOM     44 H44  LIG A   1      -0.277   1.660  -0.755  1.00 20.00    +0.032 H 
ATOM     45 H45  LIG A   1       0.251  -0.227  -1.669  1.00 20.00    +0.063 H 
ATOM     46 H46  LIG A   1       0.400  -2.082  -3.243  1.00 20.00    +0.062 H 
ATOM     47 H47  LIG A   1      -1.618  -3.441  -3.757  1.00 20.00    +0.062 H 
ATOM     48 H48  LIG A   1      -3.767  -2.896  -2.669  1.00 20.00    +0.065 H 
ATOM     49 H49  LIG A   1      -6.460  -0.522   0.042  1.00 20.00    +0.065 H 
ATOM     50 H50  LIG A   1      -6.978   1.268   1.662  1.00 20.00    +0.062 H 
ATOM     51 H51  LIG A   1      -5.172   2.796   2.425  1.00 20.00    +0.062 H 
ATOM     52 H52  LIG A   1      -2.907   2.527   1.579  1.00 20.00    +0.063 H 
ATOM     53 H53  LIG A   1       2.004   0.920   2.151  1.00 20.00    +0.057 H 
ATOM     54 H54  LIG A   1       2.399   3.129   1.659  1.00 20.00    +0.119 HD
ATOM     55 H55  LIG A   1       1.178   3.250   0.630  1.00 20.00    +0.119 HD
ATOM     56 H56  LIG A   1       2.041  -1.304   1.500  1.00 20.00    +0.049 H 
ATOM     57 H57  LIG A   1       3.805  -1.092   1.584  1.00 20.00    +0.049 H 
ATOM     58 H58  LIG A   1       3.561  -3.329   0.602  1.00 20.00    +0.029 H 
ATOM     59 H59  LIG A   1       2.211  -2.780  -0.413  1.00 20.00    +0.029 H 
ATOM     60 H60  LIG A   1       5.148  -2.081  -0.694  1.00 20.00    +0.029 H 
ATOM     61 H61  LIG A   1       4.019  -2.563  -1.964  1.00 20.00    +0.029 H 
ATOM     62 H62  LIG A   1       3.080  -0.369  -2.124  1.00 20.00    +0.065 H 
ATOM     63 H63  LIG A   1       6.172   1.526  -0.693  1.00 20.00    +0.296 HD
ATOM     64 H64  LIG A   1       2.879  -0.851   0.199  1.00 20.00    +0.293 HD
ATOM     65 H65  LIG A   1       1.200  -2.351  -0.159  1.00 20.00    +0.066 H 
ATOM     66 H66  LIG A   1      -1.243  -2.614  -0.447  1.00 20.00    +0.063 H 
ATOM     67 H67  LIG A   1      -2.739  -0.627  -0.364  1.00 20.00    +0.066 H 
ATOM     68 H68  LIG A   1      -1.343   2.591   0.173  1.00 20.00    +0.293 HD
ATOM     69 H69  LIG A   1       1.721   2.010   0.424  1.00 20.00    +0.293 HD
ENDROOT
TORSDOF 0
