ROOT
ATOM      1 N1   LIG A   1     -12.001   0.469   0.406  1.00 20.00    -0.289 NA
ATOM      2 C2   LIG A   1     -10.720   0.373   0.261  1.00 20.00    +0.092 C 
ATOM      3 N3   LIG A   1      -9.941   1.404   0.686  1.00 20.00    -0.388 NA
ATOM      4 C4   LIG A   1     -10.075  -0.844  -0.366  1.00 20.00    +0.022 C 
ATOM      5 C5   LIG A   1      -9.770  -0.598  -1.842  1.00 20.00    +0.022 C 
ATOM      6 N6   LIG A   1      -8.681   0.360  -2.038  1.00 20.00    -0.384 NA
ATOM      7 C7   LIG A   1      -7.354   0.051  -1.745  1.00 20.00    +0.038 A 
ATOM      8 C8   LIG A   1      -6.852  -1.256  -1.702  1.00 20.00    -0.038 A 
ATOM      9 C9   LIG A   1      -5.495  -1.505  -1.465  1.00 20.00    -0.045 A 
ATOM     10 C10  LIG A   1      -4.612  -0.438  -1.298  1.00 20.00    +0.065 A 
ATOM     11 C11  LIG A   1      -3.179  -0.673  -1.049  1.00 20.00    +0.200 C 
ATOM     12 O12  LIG A   1      -2.744  -1.815  -0.951  1.00 20.00    -0.288 OA
ATOM     13 C13  LIG A   1      -2.317   0.537  -0.925  1.00 20.00    +0.065 C 
ATOM     14 C14  LIG A   1      -0.867   0.455  -0.670  1.00 20.00    -0.011 A 
ATOM     15 C15  LIG A   1       0.047   1.184  -1.439  1.00 20.00    -0.052 A 
ATOM     16 C16  LIG A   1       1.421   1.105  -1.179  1.00 20.00    -0.038 A 
ATOM     17 C17  LIG A   1       1.930   0.276  -0.170  1.00 20.00    +0.034 A 
ATOM     18 N18  LIG A   1       3.307   0.300   0.076  1.00 20.00    -0.385 NA
ATOM     19 C19  LIG A   1       3.914  -0.757   0.880  1.00 20.00    +0.016 C 
ATOM     20 C20  LIG A   1       5.433  -0.580   0.940  1.00 20.00    -0.023 C 
ATOM     21 C21  LIG A   1       5.837   0.660   1.744  1.00 20.00    -0.003 C 
ATOM     22 N22  LIG A   1       7.287   0.788   1.930  1.00 20.00    -0.317 NA
ATOM     23 C23  LIG A   1       7.978   1.188   0.705  1.00 20.00    -0.005 C 
ATOM     24 C24  LIG A   1       9.450   1.512   0.976  1.00 20.00    -0.039 C 
ATOM     25 C25  LIG A   1      10.293   0.437   1.677  1.00 20.00    -0.040 C 
ATOM     26 C26  LIG A   1      10.266  -0.946   1.026  1.00 20.00    -0.008 C 
ATOM     27 N27  LIG A   1       9.101  -1.725   1.441  1.00 20.00    -0.330 NA
ATOM     28 C28  LIG A   1       1.008  -0.422   0.614  1.00 20.00    -0.038 A 
ATOM     29 C29  LIG A   1      -0.369  -0.349   0.359  1.00 20.00    -0.052 A 
ATOM     30 C30  LIG A   1      -2.927   1.730  -1.022  1.00 20.00    +0.103 C 
ATOM     31 O31  LIG A   1      -4.265   1.958  -1.242  1.00 20.00    -0.463 OA
ATOM     32 C32  LIG A   1      -5.082   0.865  -1.380  1.00 20.00    +0.139 A 
ATOM     33 C33  LIG A   1      -6.438   1.107  -1.613  1.00 20.00    +0.005 A 
ATOM     34 O34  LIG A   1       2.419   0.301  -0.145  1.00 20.00    -0.504 OA
ATOM     35 C35  LIG A   1       1.105  -0.071  -0.083  1.00 20.00    +0.161 A 
ATOM     36 C36  LIG A   1       0.711  -1.404  -0.159  1.00 20.00    -0.016 A 
ATOM     37 C37  LIG A   1      -0.651  -1.722  -0.089  1.00 20.00    -0.055 A 
ATOM     38 C38  LIG A   1      -1.608  -0.711   0.057  1.00 20.00    -0.016 A 
ATOM     39 C39  LIG A   1      -1.196   0.612   0.131  1.00 20.00    +0.161 A 
ATOM     40 O40  LIG A   1      -2.127   1.599   0.273  1.00 20.00    -0.504 OA
ATOM     41 C41  LIG A   1       0.153   0.932   0.062  1.00 20.00    +0.200 A 
ATOM     42 O42  LIG A   1       0.532   2.245   0.138  1.00 20.00    -0.502 OA
ATOM     43 H43  LIG A   1     -12.479  -0.363   0.047  1.00 20.00    +0.189 HD
ATOM     44 H44  LIG A   1     -10.441   2.025   1.315  1.00 20.00    +0.157 HD
ATOM     45 H45  LIG A   1      -9.006   1.171   1.000  1.00 20.00    +0.157 HD
ATOM     46 H46  LIG A   1      -9.172  -1.097   0.199  1.00 20.00    +0.037 H 
ATOM     47 H47  LIG A   1     -10.765  -1.690  -0.275  1.00 20.00    +0.037 H 
ATOM     48 H48  LIG A   1     -10.661  -0.190  -2.336  1.00 20.00    +0.049 H 
ATOM     49 H49  LIG A   1      -9.553  -1.543  -2.351  1.00 20.00    +0.049 H 
ATOM     50 H50  LIG A   1      -8.947   1.296  -1.727  1.00 20.00    +0.160 HD
ATOM     51 H51  LIG A   1      -7.502  -2.112  -1.856  1.00 20.00    +0.064 H 
ATOM     52 H52  LIG A   1      -5.132  -2.530  -1.426  1.00 20.00    +0.063 H 
ATOM     53 H53  LIG A   1      -0.292   1.822  -2.252  1.00 20.00    +0.063 H 
ATOM     54 H54  LIG A   1       2.099   1.704  -1.782  1.00 20.00    +0.064 H 
ATOM     55 H55  LIG A   1       3.827   0.498  -0.776  1.00 20.00    +0.160 HD
ATOM     56 H56  LIG A   1       3.512  -0.750   1.900  1.00 20.00    +0.049 H 
ATOM     57 H57  LIG A   1       3.694  -1.733   0.431  1.00 20.00    +0.049 H 
ATOM     58 H58  LIG A   1       5.834  -0.527  -0.079  1.00 20.00    +0.030 H 
ATOM     59 H59  LIG A   1       5.864  -1.473   1.411  1.00 20.00    +0.030 H 
ATOM     60 H60  LIG A   1       5.391   0.591   2.744  1.00 20.00    +0.043 H 
ATOM     61 H61  LIG A   1       5.432   1.574   1.293  1.00 20.00    +0.043 H 
ATOM     62 H62  LIG A   1       7.669  -0.126   2.194  1.00 20.00    +0.122 HD
ATOM     63 H63  LIG A   1       7.912   0.405  -0.058  1.00 20.00    +0.043 H 
ATOM     64 H64  LIG A   1       7.509   2.087   0.286  1.00 20.00    +0.043 H 
ATOM     65 H65  LIG A   1       9.924   1.751   0.015  1.00 20.00    +0.028 H 
ATOM     66 H66  LIG A   1       9.507   2.430   1.576  1.00 20.00    +0.028 H 
ATOM     67 H67  LIG A   1      10.006   0.367   2.734  1.00 20.00    +0.028 H 
ATOM     68 H68  LIG A   1      11.333   0.791   1.679  1.00 20.00    +0.028 H 
ATOM     69 H69  LIG A   1      10.282  -0.856  -0.065  1.00 20.00    +0.043 H 
ATOM     70 H70  LIG A   1      11.166  -1.498   1.320  1.00 20.00    +0.043 H 
ATOM     71 H71  LIG A   1       9.183  -1.931   2.438  1.00 20.00    +0.118 HD
ATOM     72 H72  LIG A   1       9.130  -2.632   0.973  1.00 20.00    +0.118 HD
ATOM     73 H73  LIG A   1       1.334  -1.046   1.441  1.00 20.00    +0.064 H 
ATOM     74 H74  LIG A   1      -1.046  -0.929   0.983  1.00 20.00    +0.063 H 
ATOM     75 H75  LIG A   1      -2.415   2.680  -0.924  1.00 20.00    +0.105 H 
ATOM     76 H76  LIG A   1      -6.780   2.136  -1.696  1.00 20.00    +0.068 H 
ATOM     77 H77  LIG A   1       2.956  -0.504  -0.246  1.00 20.00    +0.293 HD
ATOM     78 H78  LIG A   1       1.437  -2.203  -0.272  1.00 20.00    +0.066 H 
ATOM     79 H79  LIG A   1      -0.971  -2.759  -0.147  1.00 20.00    +0.063 H 
ATOM     80 H80  LIG A   1      -2.665  -0.955   0.112  1.00 20.00    +0.066 H 
ATOM     81 H81  LIG A   1      -1.604   2.426   0.301  1.00 20.00    +0.293 HD
ATOM     82 H82  LIG A   1       1.509   2.214   0.067  1.00 20.00    +0.293 HD
ENDROOT
TORSDOF 0
