MODEL 1
REMARK VINA RESULT:   -11.758      0.000      0.000
REMARK INTER + INTRA:         -11.758
REMARK INTER:                 -11.758
REMARK INTRA:                   0.000
REMARK UNBOUND:                 0.000
ROOT
ATOM      1 C1   LIG A   1      23.455  17.560   5.382  1.00 20.00    -0.060 C 
ATOM      2 C2   LIG A   1      22.413  18.412   6.131  1.00 20.00    -0.016 C 
ATOM      3 C3   LIG A   1      21.781  17.482   7.226  1.00 20.00    -0.023 C 
ATOM      4 C4   LIG A   1      20.942  18.212   8.236  1.00 20.00    -0.048 A 
ATOM      5 C5   LIG A   1      21.442  18.421   9.525  1.00 20.00    -0.058 A 
ATOM      6 C6   LIG A   1      20.963  19.487  10.276  1.00 20.00    -0.051 A 
ATOM      7 C7   LIG A   1      20.043  20.366   9.701  1.00 20.00    +0.017 A 
ATOM      8 C8   LIG A   1      19.329  19.960   8.567  1.00 20.00    -0.051 A 
ATOM      9 C9   LIG A   1      19.774  18.865   7.835  1.00 20.00    -0.058 A 
ATOM     10 C10  LIG A   1      20.016  21.784  10.117  1.00 20.00    +0.140 C 
ATOM     11 C11  LIG A   1      20.243  22.787   9.239  1.00 20.00    +0.047 C 
ATOM     12 C12  LIG A   1      20.879  22.705   7.883  1.00 20.00    +0.256 C 
ATOM     13 O13  LIG A   1      20.675  23.623   7.089  1.00 20.00    -0.269 OA
ATOM     14 N14  LIG A   1      21.959  21.833   7.805  1.00 20.00    -0.278 NA
ATOM     15 C15  LIG A   1      23.263  22.397   8.188  1.00 20.00    +0.029 C 
ATOM     16 C16  LIG A   1      23.327  23.187   9.518  1.00 20.00    -0.034 C 
ATOM     17 C17  LIG A   1      23.221  22.273  10.743  1.00 20.00    -0.034 C 
ATOM     18 C18  LIG A   1      22.856  22.957  12.074  1.00 20.00    +0.085 C 
ATOM     19 C19  LIG A   1      22.986  21.922  13.185  1.00 20.00    +0.311 C 
ATOM     20 O20  LIG A   1      22.210  21.025  13.467  1.00 20.00    -0.252 OA
ATOM     21 O21  LIG A   1      24.145  22.044  13.870  1.00 20.00    -0.481 OA
ATOM     22 C22  LIG A   1      21.541  23.723  12.205  1.00 20.00    +0.009 A 
ATOM     23 C23  LIG A   1      21.630  25.055  12.658  1.00 20.00    -0.052 A 
ATOM     24 C24  LIG A   1      20.490  25.833  12.913  1.00 20.00    -0.038 A 
ATOM     25 C25  LIG A   1      19.208  25.308  12.774  1.00 20.00    +0.038 A 
ATOM     26 N26  LIG A   1      18.039  26.042  12.958  1.00 20.00    -0.385 NA
ATOM     27 C27  LIG A   1      18.007  27.279  13.731  1.00 20.00    +0.016 C 
ATOM     28 C28  LIG A   1      18.099  27.003  15.233  1.00 20.00    -0.023 C 
ATOM     29 C29  LIG A   1      18.027  28.307  16.029  1.00 20.00    -0.003 C 
ATOM     30 N30  LIG A   1      18.065  28.015  17.463  1.00 20.00    -0.317 NA
ATOM     31 C31  LIG A   1      18.042  29.227  18.285  1.00 20.00    -0.005 C 
ATOM     32 C32  LIG A   1      16.732  29.350  19.069  1.00 20.00    -0.039 C 
ATOM     33 C33  LIG A   1      15.474  29.580  18.224  1.00 20.00    -0.040 C 
ATOM     34 C34  LIG A   1      15.465  30.869  17.399  1.00 20.00    -0.008 C 
ATOM     35 N35  LIG A   1      15.512  32.074  18.219  1.00 20.00    -0.330 NA
ATOM     36 C36  LIG A   1      19.107  24.001  12.286  1.00 20.00    +0.004 A 
ATOM     37 C37  LIG A   1      20.243  23.223  11.997  1.00 20.00    +0.133 A 
ATOM     38 O38  LIG A   1      19.969  21.964  11.502  1.00 20.00    -0.456 OA
ATOM     39 C39  LIG A   1      21.871  20.891   6.770  1.00 20.00    +0.246 C 
ATOM     40 O40  LIG A   1      20.940  20.894   5.957  1.00 20.00    -0.273 OA
ATOM     41 C41  LIG A   1      22.993  19.785   6.670  1.00 20.00    +0.088 C 
ATOM     42 N42  LIG A   1      24.033  20.308   5.755  1.00 20.00    -0.320 NA
ATOM     43 O43  LIG A   1      22.466  22.176   9.377  1.00 20.00    -0.251 OA
ATOM     44 C44  LIG A   1      22.006  22.396  10.486  1.00 20.00    +0.317 C 
ATOM     45 O45  LIG A   1      22.799  22.323  11.580  1.00 20.00    -0.480 OA
ATOM     46 C46  LIG A   1      20.545  22.675  10.816  1.00 20.00    +0.094 C 
ATOM     47 N47  LIG A   1      20.436  23.588  11.971  1.00 20.00    -0.306 NA
ATOM     48 C48  LIG A   1      19.051  23.672  12.447  1.00 20.00    +0.005 C 
ATOM     49 C49  LIG A   1      18.904  24.647  13.624  1.00 20.00    +0.003 C 
ATOM     50 S50  LIG A   1      19.322  26.355  13.154  1.00 20.00    -0.178 SA
ATOM     51 H51  LIG A   1      23.790  18.052   4.464  1.00 20.00    +0.023 H 
ATOM     52 H52  LIG A   1      23.025  16.595   5.084  1.00 20.00    +0.023 H 
ATOM     53 H53  LIG A   1      24.328  17.358   6.010  1.00 20.00    +0.023 H 
ATOM     54 H54  LIG A   1      21.621  18.634   5.404  1.00 20.00    +0.032 H 
ATOM     55 H55  LIG A   1      22.581  16.939   7.745  1.00 20.00    +0.032 H 
ATOM     56 H56  LIG A   1      21.164  16.714   6.741  1.00 20.00    +0.032 H 
ATOM     57 H57  LIG A   1      22.291  17.853   9.896  1.00 20.00    +0.063 H 
ATOM     58 H58  LIG A   1      21.431  19.712  11.231  1.00 20.00    +0.063 H 
ATOM     59 H59  LIG A   1      18.550  20.590   8.139  1.00 20.00    +0.063 H 
ATOM     60 H60  LIG A   1      19.336  18.672   6.858  1.00 20.00    +0.063 H 
ATOM     61 H61  LIG A   1      20.146  23.827   9.539  1.00 20.00    +0.072 H 
ATOM     62 H62  LIG A   1      23.557  23.075   7.376  1.00 20.00    +0.050 H 
ATOM     63 H63  LIG A   1      24.016  21.606   8.227  1.00 20.00    +0.050 H 
ATOM     64 H64  LIG A   1      22.576  23.982   9.537  1.00 20.00    +0.029 H 
ATOM     65 H65  LIG A   1      24.296  23.701   9.565  1.00 20.00    +0.029 H 
ATOM     66 H66  LIG A   1      22.536  21.461  10.544  1.00 20.00    +0.028 H 
ATOM     67 H67  LIG A   1      24.194  21.774  10.863  1.00 20.00    +0.028 H 
ATOM     68 H68  LIG A   1      23.664  23.684  12.247  1.00 20.00    +0.047 H 
ATOM     69 H69  LIG A   1      24.088  21.337  14.548  1.00 20.00    +0.296 HD
ATOM     70 H70  LIG A   1      22.602  25.515  12.830  1.00 20.00    +0.063 H 
ATOM     71 H71  LIG A   1      20.643  26.856  13.239  1.00 20.00    +0.064 H 
ATOM     72 H72  LIG A   1      17.230  25.449  13.129  1.00 20.00    +0.160 HD
ATOM     73 H73  LIG A   1      17.050  27.772  13.520  1.00 20.00    +0.049 H 
ATOM     74 H74  LIG A   1      18.781  27.980  13.401  1.00 20.00    +0.049 H 
ATOM     75 H75  LIG A   1      19.035  26.480  15.465  1.00 20.00    +0.030 H 
ATOM     76 H76  LIG A   1      17.283  26.335  15.532  1.00 20.00    +0.030 H 
ATOM     77 H77  LIG A   1      18.870  28.951  15.749  1.00 20.00    +0.043 H 
ATOM     78 H78  LIG A   1      17.099  28.830  15.775  1.00 20.00    +0.043 H 
ATOM     79 H79  LIG A   1      18.913  27.486  17.669  1.00 20.00    +0.122 HD
ATOM     80 H80  LIG A   1      18.249  30.135  17.708  1.00 20.00    +0.043 H 
ATOM     81 H81  LIG A   1      18.857  29.149  19.015  1.00 20.00    +0.043 H 
ATOM     82 H82  LIG A   1      16.837  30.160  19.802  1.00 20.00    +0.028 H 
ATOM     83 H83  LIG A   1      16.584  28.437  19.661  1.00 20.00    +0.028 H 
ATOM     84 H84  LIG A   1      14.605  29.583  18.896  1.00 20.00    +0.028 H 
ATOM     85 H85  LIG A   1      15.327  28.728  17.550  1.00 20.00    +0.028 H 
ATOM     86 H86  LIG A   1      14.548  30.898  16.800  1.00 20.00    +0.043 H 
ATOM     87 H87  LIG A   1      16.298  30.889  16.690  1.00 20.00    +0.043 H 
ATOM     88 H88  LIG A   1      16.368  32.091  18.769  1.00 20.00    +0.118 HD
ATOM     89 H89  LIG A   1      14.745  32.056  18.891  1.00 20.00    +0.118 HD
ATOM     90 H90  LIG A   1      18.125  23.568  12.109  1.00 20.00    +0.068 H 
ATOM     91 H91  LIG A   1      23.439  19.620   7.656  1.00 20.00    +0.057 H 
ATOM     92 H92  LIG A   1      24.308  21.258   5.993  1.00 20.00    +0.119 HD
ATOM     93 H93  LIG A   1      24.868  19.730   5.803  1.00 20.00    +0.119 HD
ATOM     94 H94  LIG A   1      23.687  22.142  11.206  1.00 20.00    +0.296 HD
ATOM     95 H95  LIG A   1      20.081  23.139   9.940  1.00 20.00    +0.055 H 
ATOM     96 H96  LIG A   1      20.069  21.711  11.021  1.00 20.00    +0.055 H 
ATOM     97 H97  LIG A   1      21.048  23.233  12.710  1.00 20.00    +0.123 HD
ATOM     98 H98  LIG A   1      18.388  23.983  11.630  1.00 20.00    +0.044 H 
ATOM     99 H99  LIG A   1      18.718  22.681  12.780  1.00 20.00    +0.044 H 
ATOM    100 H100 LIG A   1      17.873  24.634  13.993  1.00 20.00    +0.039 H 
ATOM    101 H101 LIG A   1      19.556  24.347  14.451  1.00 20.00    +0.039 H 
ATOM    102 H102 LIG A   1      20.445  26.029  12.494  1.00 20.00    +0.102 HD
ENDROOT
TORSDOF 0
                                                                                                         
ENDMDL
MODEL 2
REMARK VINA RESULT:   -10.953      3.313     10.381
REMARK INTER + INTRA:         -10.953
REMARK INTER:                 -10.953
REMARK INTRA:                   0.000
REMARK UNBOUND:                 0.000
ROOT
ATOM      1 C1   LIG A   1      22.194  28.674  16.073  1.00 20.00    -0.060 C 
ATOM      2 C2   LIG A   1      21.552  27.365  15.576  1.00 20.00    -0.016 C 
ATOM      3 C3   LIG A   1      20.212  27.767  14.867  1.00 20.00    -0.023 C 
ATOM      4 C4   LIG A   1      19.581  26.655  14.078  1.00 20.00    -0.048 A 
ATOM      5 C5   LIG A   1      19.653  26.673  12.682  1.00 20.00    -0.058 A 
ATOM      6 C6   LIG A   1      19.565  25.479  11.980  1.00 20.00    -0.051 A 
ATOM      7 C7   LIG A   1      19.477  24.277  12.688  1.00 20.00    +0.017 A 
ATOM      8 C8   LIG A   1      19.083  24.306  14.031  1.00 20.00    -0.051 A 
ATOM      9 C9   LIG A   1      19.122  25.508  14.730  1.00 20.00    -0.058 A 
ATOM     10 C10  LIG A   1      20.040  23.038  12.113  1.00 20.00    +0.140 C 
ATOM     11 C11  LIG A   1      21.024  22.350  12.734  1.00 20.00    +0.047 C 
ATOM     12 C12  LIG A   1      21.940  22.823  13.823  1.00 20.00    +0.256 C 
ATOM     13 O13  LIG A   1      22.512  21.977  14.510  1.00 20.00    -0.269 OA
ATOM     14 N14  LIG A   1      22.378  24.134  13.680  1.00 20.00    -0.278 NA
ATOM     15 C15  LIG A   1      23.571  24.320  12.839  1.00 20.00    +0.029 C 
ATOM     16 C16  LIG A   1      23.580  23.614  11.460  1.00 20.00    -0.034 C 
ATOM     17 C17  LIG A   1      22.620  24.273  10.464  1.00 20.00    -0.034 C 
ATOM     18 C18  LIG A   1      22.234  23.432   9.232  1.00 20.00    +0.085 C 
ATOM     19 C19  LIG A   1      21.438  24.323   8.286  1.00 20.00    +0.311 C 
ATOM     20 O20  LIG A   1      20.271  24.663   8.383  1.00 20.00    -0.252 OA
ATOM     21 O21  LIG A   1      22.189  24.793   7.266  1.00 20.00    -0.481 OA
ATOM     22 C22  LIG A   1      21.539  22.085   9.413  1.00 20.00    +0.009 A 
ATOM     23 C23  LIG A   1      22.137  20.977   8.779  1.00 20.00    -0.052 A 
ATOM     24 C24  LIG A   1      21.545  19.704   8.788  1.00 20.00    -0.038 A 
ATOM     25 C25  LIG A   1      20.307  19.484   9.388  1.00 20.00    +0.038 A 
ATOM     26 N26  LIG A   1      19.694  18.237   9.478  1.00 20.00    -0.385 NA
ATOM     27 C27  LIG A   1      20.041  17.130   8.593  1.00 20.00    +0.016 C 
ATOM     28 C28  LIG A   1      19.471  17.336   7.189  1.00 20.00    -0.023 C 
ATOM     29 C29  LIG A   1      19.812  16.149   6.285  1.00 20.00    -0.003 C 
ATOM     30 N30  LIG A   1      19.214  16.344   4.964  1.00 20.00    -0.317 NA
ATOM     31 C31  LIG A   1      19.538  15.261   4.034  1.00 20.00    -0.005 C 
ATOM     32 C32  LIG A   1      18.301  14.428   3.685  1.00 20.00    -0.039 C 
ATOM     33 C33  LIG A   1      17.703  13.616   4.840  1.00 20.00    -0.040 C 
ATOM     34 C34  LIG A   1      18.630  12.558   5.445  1.00 20.00    -0.008 C 
ATOM     35 N35  LIG A   1      19.007  11.517   4.496  1.00 20.00    -0.330 NA
ATOM     36 C36  LIG A   1      19.724  20.566  10.054  1.00 20.00    +0.004 A 
ATOM     37 C37  LIG A   1      20.325  21.838  10.080  1.00 20.00    +0.133 A 
ATOM     38 O38  LIG A   1      19.631  22.789  10.800  1.00 20.00    -0.456 OA
ATOM     39 C39  LIG A   1      22.173  24.941  14.808  1.00 20.00    +0.246 C 
ATOM     40 O40  LIG A   1      21.709  24.492  15.862  1.00 20.00    -0.273 OA
ATOM     41 C41  LIG A   1      22.533  26.475  14.703  1.00 20.00    +0.088 C 
ATOM     42 N42  LIG A   1      23.930  26.624  15.172  1.00 20.00    -0.320 NA
ATOM     43 O43  LIG A   1      22.428  24.029  11.997  1.00 20.00    -0.251 OA
ATOM     44 C44  LIG A   1      21.805  23.544  11.066  1.00 20.00    +0.317 C 
ATOM     45 O45  LIG A   1      22.031  23.967   9.801  1.00 20.00    -0.480 OA
ATOM     46 C46  LIG A   1      20.679  22.523  11.171  1.00 20.00    +0.094 C 
ATOM     47 N47  LIG A   1      20.672  21.631   9.995  1.00 20.00    -0.306 NA
ATOM     48 C48  LIG A   1      19.458  20.808   9.965  1.00 20.00    +0.005 C 
ATOM     49 C49  LIG A   1      19.445  19.843   8.772  1.00 20.00    +0.003 C 
ATOM     50 S50  LIG A   1      20.804  18.635   8.853  1.00 20.00    -0.178 SA
ATOM     51 H51  LIG A   1      23.018  28.479  16.766  1.00 20.00    +0.023 H 
ATOM     52 H52  LIG A   1      21.462  29.283  16.617  1.00 20.00    +0.023 H 
ATOM     53 H53  LIG A   1      22.573  29.272  15.238  1.00 20.00    +0.023 H 
ATOM     54 H54  LIG A   1      21.281  26.798  16.476  1.00 20.00    +0.032 H 
ATOM     55 H55  LIG A   1      20.395  28.622  14.204  1.00 20.00    +0.032 H 
ATOM     56 H56  LIG A   1      19.493  28.121  15.619  1.00 20.00    +0.032 H 
ATOM     57 H57  LIG A   1      19.912  27.583  12.146  1.00 20.00    +0.063 H 
ATOM     58 H58  LIG A   1      19.732  25.484  10.906  1.00 20.00    +0.063 H 
ATOM     59 H59  LIG A   1      18.930  23.384  14.590  1.00 20.00    +0.063 H 
ATOM     60 H60  LIG A   1      19.004  25.491  15.812  1.00 20.00    +0.063 H 
ATOM     61 H61  LIG A   1      21.377  21.400  12.341  1.00 20.00    +0.072 H 
ATOM     62 H62  LIG A   1      24.421  23.940  13.420  1.00 20.00    +0.050 H 
ATOM     63 H63  LIG A   1      23.751  25.386  12.675  1.00 20.00    +0.050 H 
ATOM     64 H64  LIG A   1      23.384  22.544  11.568  1.00 20.00    +0.029 H 
ATOM     65 H65  LIG A   1      24.594  23.685  11.047  1.00 20.00    +0.029 H 
ATOM     66 H66  LIG A   1      21.729  24.614  10.973  1.00 20.00    +0.028 H 
ATOM     67 H67  LIG A   1      23.096  25.202  10.117  1.00 20.00    +0.028 H 
ATOM     68 H68  LIG A   1      23.187  23.230   8.721  1.00 20.00    +0.047 H 
ATOM     69 H69  LIG A   1      21.557  25.329   6.741  1.00 20.00    +0.296 HD
ATOM     70 H70  LIG A   1      23.084  21.087   8.254  1.00 20.00    +0.063 H 
ATOM     71 H71  LIG A   1      22.079  18.899   8.295  1.00 20.00    +0.064 H 
ATOM     72 H72  LIG A   1      18.693  18.307   9.648  1.00 20.00    +0.160 HD
ATOM     73 H73  LIG A   1      19.604  16.220   9.022  1.00 20.00    +0.049 H 
ATOM     74 H74  LIG A   1      21.122  16.958   8.569  1.00 20.00    +0.049 H 
ATOM     75 H75  LIG A   1      19.868  18.260   6.751  1.00 20.00    +0.030 H 
ATOM     76 H76  LIG A   1      18.383  17.460   7.251  1.00 20.00    +0.030 H 
ATOM     77 H77  LIG A   1      20.902  16.059   6.201  1.00 20.00    +0.043 H 
ATOM     78 H78  LIG A   1      19.429  15.231   6.742  1.00 20.00    +0.043 H 
ATOM     79 H79  LIG A   1      19.547  17.228   4.578  1.00 20.00    +0.122 HD
ATOM     80 H80  LIG A   1      20.359  14.628   4.390  1.00 20.00    +0.043 H 
ATOM     81 H81  LIG A   1      19.901  15.718   3.105  1.00 20.00    +0.043 H 
ATOM     82 H82  LIG A   1      18.553  13.758   2.854  1.00 20.00    +0.028 H 
ATOM     83 H83  LIG A   1      17.520  15.096   3.298  1.00 20.00    +0.028 H 
ATOM     84 H84  LIG A   1      16.792  13.123   4.477  1.00 20.00    +0.028 H 
ATOM     85 H85  LIG A   1      17.378  14.297   5.635  1.00 20.00    +0.028 H 
ATOM     86 H86  LIG A   1      18.118  12.083   6.289  1.00 20.00    +0.043 H 
ATOM     87 H87  LIG A   1      19.537  13.015   5.851  1.00 20.00    +0.043 H 
ATOM     88 H88  LIG A   1      19.511  11.924   3.710  1.00 20.00    +0.118 HD
ATOM     89 H89  LIG A   1      18.166  11.095   4.103  1.00 20.00    +0.118 HD
ATOM     90 H90  LIG A   1      18.784  20.428  10.585  1.00 20.00    +0.068 H 
ATOM     91 H91  LIG A   1      22.472  26.800  13.659  1.00 20.00    +0.057 H 
ATOM     92 H92  LIG A   1      24.552  25.949  14.734  1.00 20.00    +0.119 HD
ATOM     93 H93  LIG A   1      24.280  27.551  14.945  1.00 20.00    +0.119 HD
ATOM     94 H94  LIG A   1      22.768  24.605   9.902  1.00 20.00    +0.296 HD
ATOM     95 H95  LIG A   1      20.841  21.930  12.076  1.00 20.00    +0.055 H 
ATOM     96 H96  LIG A   1      19.742  23.082  11.256  1.00 20.00    +0.055 H 
ATOM     97 H97  LIG A   1      20.729  22.216   9.157  1.00 20.00    +0.123 HD
ATOM     98 H98  LIG A   1      19.365  20.238  10.897  1.00 20.00    +0.044 H 
ATOM     99 H99  LIG A   1      18.578  21.458   9.889  1.00 20.00    +0.044 H 
ATOM    100 H100 LIG A   1      18.498  19.293   8.746  1.00 20.00    +0.039 H 
ATOM    101 H101 LIG A   1      19.533  20.398   7.831  1.00 20.00    +0.039 H 
ATOM    102 H102 LIG A   1      21.749  19.535   9.170  1.00 20.00    +0.102 HD
ENDROOT
TORSDOF 0
                                                                                                         
ENDMDL
MODEL 3
REMARK VINA RESULT:   -10.951      8.703     14.115
REMARK INTER + INTRA:         -10.951
REMARK INTER:                 -10.951
REMARK INTRA:                   0.000
REMARK UNBOUND:                 0.000
ROOT
ATOM      1 C1   LIG A   1      22.916  16.098  12.144  1.00 20.00    -0.060 C 
ATOM      2 C2   LIG A   1      21.589  16.265  11.380  1.00 20.00    -0.016 C 
ATOM      3 C3   LIG A   1      21.815  17.417  10.341  1.00 20.00    -0.023 C 
ATOM      4 C4   LIG A   1      20.721  17.540   9.317  1.00 20.00    -0.048 A 
ATOM      5 C5   LIG A   1      20.948  17.098   8.011  1.00 20.00    -0.058 A 
ATOM      6 C6   LIG A   1      19.869  16.717   7.224  1.00 20.00    -0.051 A 
ATOM      7 C7   LIG A   1      18.587  16.718   7.780  1.00 20.00    +0.017 A 
ATOM      8 C8   LIG A   1      18.350  17.457   8.945  1.00 20.00    -0.051 A 
ATOM      9 C9   LIG A   1      19.427  17.884   9.714  1.00 20.00    -0.058 A 
ATOM     10 C10  LIG A   1      17.574  15.753   7.304  1.00 20.00    +0.140 C 
ATOM     11 C11  LIG A   1      17.013  14.844   8.132  1.00 20.00    +0.047 C 
ATOM     12 C12  LIG A   1      17.500  14.391   9.476  1.00 20.00    +0.256 C 
ATOM     13 O13  LIG A   1      16.695  13.850  10.234  1.00 20.00    -0.269 OA
ATOM     14 N14  LIG A   1      18.879  14.242   9.570  1.00 20.00    -0.278 NA
ATOM     15 C15  LIG A   1      19.411  12.940   9.135  1.00 20.00    +0.029 C 
ATOM     16 C16  LIG A   1      18.919  12.397   7.770  1.00 20.00    -0.034 C 
ATOM     17 C17  LIG A   1      19.509  13.175   6.590  1.00 20.00    -0.034 C 
ATOM     18 C18  LIG A   1      18.789  13.009   5.237  1.00 20.00    +0.085 C 
ATOM     19 C19  LIG A   1      19.629  13.699   4.170  1.00 20.00    +0.311 C 
ATOM     20 O20  LIG A   1      19.716  14.895   3.944  1.00 20.00    -0.252 OA
ATOM     21 O21  LIG A   1      20.374  12.827   3.456  1.00 20.00    -0.481 OA
ATOM     22 C22  LIG A   1      17.319  13.401   5.101  1.00 20.00    +0.009 A 
ATOM     23 C23  LIG A   1      16.449  12.417   4.589  1.00 20.00    -0.052 A 
ATOM     24 C24  LIG A   1      15.097  12.683   4.324  1.00 20.00    -0.038 A 
ATOM     25 C25  LIG A   1      14.556  13.953   4.513  1.00 20.00    +0.038 A 
ATOM     26 N26  LIG A   1      13.213  14.267   4.322  1.00 20.00    -0.385 NA
ATOM     27 C27  LIG A   1      12.330  13.449   3.497  1.00 20.00    +0.016 C 
ATOM     28 C28  LIG A   1      12.613  13.648   2.007  1.00 20.00    -0.023 C 
ATOM     29 C29  LIG A   1      11.654  12.813   1.157  1.00 20.00    -0.003 C 
ATOM     30 N30  LIG A   1      11.910  13.058  -0.263  1.00 20.00    -0.317 NA
ATOM     31 C31  LIG A   1      11.051  12.255  -1.136  1.00 20.00    -0.005 C 
ATOM     32 C32  LIG A   1      10.049  13.128  -1.898  1.00 20.00    -0.039 C 
ATOM     33 C33  LIG A   1       8.983  13.815  -1.037  1.00 20.00    -0.040 C 
ATOM     34 C34  LIG A   1       8.053  12.871  -0.269  1.00 20.00    -0.008 C 
ATOM     35 N35  LIG A   1       7.249  12.024  -1.141  1.00 20.00    -0.330 NA
ATOM     36 C36  LIG A   1      15.400  14.926   5.059  1.00 20.00    +0.004 A 
ATOM     37 C37  LIG A   1      16.749  14.661   5.359  1.00 20.00    +0.133 A 
ATOM     38 O38  LIG A   1      17.435  15.722   5.913  1.00 20.00    -0.456 OA
ATOM     39 C39  LIG A   1      19.465  14.923  10.646  1.00 20.00    +0.246 C 
ATOM     40 O40  LIG A   1      18.791  15.541  11.478  1.00 20.00    -0.273 OA
ATOM     41 C41  LIG A   1      21.039  14.908  10.770  1.00 20.00    +0.088 C 
ATOM     42 N42  LIG A   1      21.392  13.763  11.640  1.00 20.00    -0.320 NA
ATOM     43 O43  LIG A   1      19.021  13.713   7.974  1.00 20.00    -0.251 OA
ATOM     44 C44  LIG A   1      18.557  13.933   6.866  1.00 20.00    +0.317 C 
ATOM     45 O45  LIG A   1      19.188  13.475   5.760  1.00 20.00    -0.480 OA
ATOM     46 C46  LIG A   1      17.331  14.782   6.555  1.00 20.00    +0.094 C 
ATOM     47 N47  LIG A   1      16.628  14.265   5.365  1.00 20.00    -0.306 NA
ATOM     48 C48  LIG A   1      15.594  15.205   4.914  1.00 20.00    +0.005 C 
ATOM     49 C49  LIG A   1      14.821  14.674   3.700  1.00 20.00    +0.003 C 
ATOM     50 S50  LIG A   1      13.904  13.149   4.086  1.00 20.00    -0.178 SA
ATOM     51 H51  LIG A   1      22.793  15.471  13.032  1.00 20.00    +0.023 H 
ATOM     52 H52  LIG A   1      23.288  17.069  12.492  1.00 20.00    +0.023 H 
ATOM     53 H53  LIG A   1      23.687  15.653  11.506  1.00 20.00    +0.023 H 
ATOM     54 H54  LIG A   1      20.860  16.633  12.113  1.00 20.00    +0.032 H 
ATOM     55 H55  LIG A   1      22.773  17.261   9.829  1.00 20.00    +0.032 H 
ATOM     56 H56  LIG A   1      21.912  18.375  10.871  1.00 20.00    +0.032 H 
ATOM     57 H57  LIG A   1      21.956  16.918   7.646  1.00 20.00    +0.063 H 
ATOM     58 H58  LIG A   1      20.056  16.271   6.251  1.00 20.00    +0.063 H 
ATOM     59 H59  LIG A   1      17.347  17.542   9.362  1.00 20.00    +0.063 H 
ATOM     60 H60  LIG A   1      19.237  18.285  10.708  1.00 20.00    +0.063 H 
ATOM     61 H61  LIG A   1      16.215  14.191   7.789  1.00 20.00    +0.072 H 
ATOM     62 H62  LIG A   1      19.128  12.216   9.911  1.00 20.00    +0.050 H 
ATOM     63 H63  LIG A   1      20.503  12.971   9.115  1.00 20.00    +0.050 H 
ATOM     64 H64  LIG A   1      17.827  12.365   7.733  1.00 20.00    +0.029 H 
ATOM     65 H65  LIG A   1      19.244  11.352   7.682  1.00 20.00    +0.029 H 
ATOM     66 H66  LIG A   1      19.594  14.223   6.838  1.00 20.00    +0.028 H 
ATOM     67 H67  LIG A   1      20.552  12.847   6.470  1.00 20.00    +0.028 H 
ATOM     68 H68  LIG A   1      18.851  11.933   5.017  1.00 20.00    +0.047 H 
ATOM     69 H69  LIG A   1      20.844  13.398   2.812  1.00 20.00    +0.296 HD
ATOM     70 H70  LIG A   1      16.815  11.414   4.377  1.00 20.00    +0.063 H 
ATOM     71 H71  LIG A   1      14.488  11.866   3.951  1.00 20.00    +0.064 H 
ATOM     72 H72  LIG A   1      13.061  15.265   4.194  1.00 20.00    +0.160 HD
ATOM     73 H73  LIG A   1      11.301  13.767   3.706  1.00 20.00    +0.049 H 
ATOM     74 H74  LIG A   1      12.378  12.393   3.780  1.00 20.00    +0.049 H 
ATOM     75 H75  LIG A   1      13.649  13.368   1.779  1.00 20.00    +0.030 H 
ATOM     76 H76  LIG A   1      12.512  14.711   1.755  1.00 20.00    +0.030 H 
ATOM     77 H77  LIG A   1      11.793  11.750   1.391  1.00 20.00    +0.043 H 
ATOM     78 H78  LIG A   1      10.624  13.086   1.408  1.00 20.00    +0.043 H 
ATOM     79 H79  LIG A   1      12.887  12.843  -0.465  1.00 20.00    +0.122 HD
ATOM     80 H80  LIG A   1      10.549  11.440  -0.604  1.00 20.00    +0.043 H 
ATOM     81 H81  LIG A   1      11.696  11.768  -1.880  1.00 20.00    +0.043 H 
ATOM     82 H82  LIG A   1       9.564  12.514  -2.667  1.00 20.00    +0.028 H 
ATOM     83 H83  LIG A   1      10.598  13.905  -2.446  1.00 20.00    +0.028 H 
ATOM     84 H84  LIG A   1       8.376  14.457  -1.690  1.00 20.00    +0.028 H 
ATOM     85 H85  LIG A   1       9.469  14.490  -0.323  1.00 20.00    +0.028 H 
ATOM     86 H86  LIG A   1       7.374  13.471   0.347  1.00 20.00    +0.043 H 
ATOM     87 H87  LIG A   1       8.618  12.238   0.421  1.00 20.00    +0.043 H 
ATOM     88 H88  LIG A   1       7.852  11.433  -1.710  1.00 20.00    +0.118 HD
ATOM     89 H89  LIG A   1       6.729  12.608  -1.796  1.00 20.00    +0.118 HD
ATOM     90 H90  LIG A   1      15.007  15.917   5.276  1.00 20.00    +0.068 H 
ATOM     91 H91  LIG A   1      21.487  14.756   9.783  1.00 20.00    +0.057 H 
ATOM     92 H92  LIG A   1      20.920  12.909  11.355  1.00 20.00    +0.119 HD
ATOM     93 H93  LIG A   1      22.393  13.585  11.599  1.00 20.00    +0.119 HD
ATOM     94 H94  LIG A   1      19.939  12.959   6.123  1.00 20.00    +0.296 HD
ATOM     95 H95  LIG A   1      16.661  14.741   7.420  1.00 20.00    +0.055 H 
ATOM     96 H96  LIG A   1      17.678  15.809   6.402  1.00 20.00    +0.055 H 
ATOM     97 H97  LIG A   1      17.323  14.118   4.628  1.00 20.00    +0.123 HD
ATOM     98 H98  LIG A   1      14.893  15.416   5.731  1.00 20.00    +0.044 H 
ATOM     99 H99  LIG A   1      16.063  16.156   4.632  1.00 20.00    +0.044 H 
ATOM    100 H100 LIG A   1      14.106  15.426   3.353  1.00 20.00    +0.039 H 
ATOM    101 H101 LIG A   1      15.508  14.463   2.873  1.00 20.00    +0.039 H 
ATOM    102 H102 LIG A   1      14.919  12.557   4.736  1.00 20.00    +0.102 HD
ENDROOT
TORSDOF 0
                                                                                                         
ENDMDL
MODEL 4
REMARK VINA RESULT:   -10.901      3.859      6.196
REMARK INTER + INTRA:         -10.901
REMARK INTER:                 -10.901
REMARK INTRA:                   0.000
REMARK UNBOUND:                 0.000
ROOT
ATOM      1 C1   LIG A   1      19.466  11.486   3.506  1.00 20.00    -0.060 C 
ATOM      2 C2   LIG A   1      19.316  12.958   3.933  1.00 20.00    -0.016 C 
ATOM      3 C3   LIG A   1      17.859  13.114   4.491  1.00 20.00    -0.023 C 
ATOM      4 C4   LIG A   1      17.615  14.411   5.210  1.00 20.00    -0.048 A 
ATOM      5 C5   LIG A   1      17.534  14.422   6.605  1.00 20.00    -0.058 A 
ATOM      6 C6   LIG A   1      17.831  15.589   7.295  1.00 20.00    -0.051 A 
ATOM      7 C7   LIG A   1      18.272  16.708   6.584  1.00 20.00    +0.017 A 
ATOM      8 C8   LIG A   1      18.034  16.776   5.206  1.00 20.00    -0.051 A 
ATOM      9 C9   LIG A   1      17.689  15.620   4.514  1.00 20.00    -0.058 A 
ATOM     10 C10  LIG A   1      19.198  17.669   7.218  1.00 20.00    +0.140 C 
ATOM     11 C11  LIG A   1      20.426  17.915   6.709  1.00 20.00    +0.047 C 
ATOM     12 C12  LIG A   1      21.203  17.092   5.725  1.00 20.00    +0.256 C 
ATOM     13 O13  LIG A   1      22.116  17.636   5.105  1.00 20.00    -0.269 OA
ATOM     14 N14  LIG A   1      21.099  15.718   5.912  1.00 20.00    -0.278 NA
ATOM     15 C15  LIG A   1      22.044  15.133   6.877  1.00 20.00    +0.029 C 
ATOM     16 C16  LIG A   1      22.177  15.838   8.250  1.00 20.00    -0.034 C 
ATOM     17 C17  LIG A   1      20.945  15.625   9.135  1.00 20.00    -0.034 C 
ATOM     18 C18  LIG A   1      20.781  16.596  10.320  1.00 20.00    +0.085 C 
ATOM     19 C19  LIG A   1      19.618  16.105  11.173  1.00 20.00    +0.311 C 
ATOM     20 O20  LIG A   1      18.424  16.222  10.949  1.00 20.00    -0.252 OA
ATOM     21 O21  LIG A   1      20.031  15.429  12.267  1.00 20.00    -0.481 OA
ATOM     22 C22  LIG A   1      20.665  18.098  10.066  1.00 20.00    +0.009 A 
ATOM     23 C23  LIG A   1      21.568  18.926  10.763  1.00 20.00    -0.052 A 
ATOM     24 C24  LIG A   1      21.501  20.326  10.693  1.00 20.00    -0.038 A 
ATOM     25 C25  LIG A   1      20.504  20.969   9.963  1.00 20.00    +0.038 A 
ATOM     26 N26  LIG A   1      20.416  22.350   9.809  1.00 20.00    -0.385 NA
ATOM     27 C27  LIG A   1      21.063  23.282  10.728  1.00 20.00    +0.016 C 
ATOM     28 C28  LIG A   1      20.319  23.358  12.062  1.00 20.00    -0.023 C 
ATOM     29 C29  LIG A   1      20.988  24.366  12.999  1.00 20.00    -0.003 C 
ATOM     30 N30  LIG A   1      20.230  24.460  14.248  1.00 20.00    -0.317 NA
ATOM     31 C31  LIG A   1      20.842  25.380  15.209  1.00 20.00    -0.005 C 
ATOM     32 C32  LIG A   1      19.979  26.627  15.423  1.00 20.00    -0.039 C 
ATOM     33 C33  LIG A   1      19.851  27.558  14.212  1.00 20.00    -0.040 C 
ATOM     34 C34  LIG A   1      21.163  28.169  13.713  1.00 20.00    -0.008 C 
ATOM     35 N35  LIG A   1      21.805  29.030  14.699  1.00 20.00    -0.330 NA
ATOM     36 C36  LIG A   1      19.628  20.158   9.235  1.00 20.00    +0.004 A 
ATOM     37 C37  LIG A   1      19.706  18.753   9.273  1.00 20.00    +0.133 A 
ATOM     38 O38  LIG A   1      18.783  18.104   8.480  1.00 20.00    -0.456 OA
ATOM     39 C39  LIG A   1      20.721  15.003   4.767  1.00 20.00    +0.246 C 
ATOM     40 O40  LIG A   1      20.568  15.551   3.670  1.00 20.00    -0.273 OA
ATOM     41 C41  LIG A   1      20.466  13.451   4.907  1.00 20.00    +0.088 C 
ATOM     42 N42  LIG A   1      21.744  12.773   4.593  1.00 20.00    -0.320 NA
ATOM     43 O43  LIG A   1      21.015  15.863   7.591  1.00 20.00    -0.251 OA
ATOM     44 C44  LIG A   1      20.529  16.581   8.450  1.00 20.00    +0.317 C 
ATOM     45 O45  LIG A   1      20.451  16.155   9.731  1.00 20.00    -0.480 OA
ATOM     46 C46  LIG A   1      19.886  17.944   8.225  1.00 20.00    +0.094 C 
ATOM     47 N47  LIG A   1      20.096  18.819   9.395  1.00 20.00    -0.306 NA
ATOM     48 C48  LIG A   1      19.283  20.037   9.295  1.00 20.00    +0.005 C 
ATOM     49 C49  LIG A   1      19.513  20.983  10.482  1.00 20.00    +0.003 C 
ATOM     50 S50  LIG A   1      21.227  21.591  10.550  1.00 20.00    -0.178 SA
ATOM     51 H51  LIG A   1      20.368  11.331   2.906  1.00 20.00    +0.023 H 
ATOM     52 H52  LIG A   1      18.618  11.173   2.885  1.00 20.00    +0.023 H 
ATOM     53 H53  LIG A   1      19.507  10.823   4.376  1.00 20.00    +0.023 H 
ATOM     54 H54  LIG A   1      19.370  13.550   3.010  1.00 20.00    +0.032 H 
ATOM     55 H55  LIG A   1      17.639  12.279   5.169  1.00 20.00    +0.032 H 
ATOM     56 H56  LIG A   1      17.139  13.025   3.666  1.00 20.00    +0.032 H 
ATOM     57 H57  LIG A   1      17.377  13.503   7.164  1.00 20.00    +0.063 H 
ATOM     58 H58  LIG A   1      17.874  15.563   8.381  1.00 20.00    +0.063 H 
ATOM     59 H59  LIG A   1      18.296  17.666   4.635  1.00 20.00    +0.063 H 
ATOM     60 H60  LIG A   1      17.695  15.637   3.426  1.00 20.00    +0.063 H 
ATOM     61 H61  LIG A   1      21.069  18.679   7.140  1.00 20.00    +0.072 H 
ATOM     62 H62  LIG A   1      23.028  15.145   6.391  1.00 20.00    +0.050 H 
ATOM     63 H63  LIG A   1      21.792  14.085   7.057  1.00 20.00    +0.050 H 
ATOM     64 H64  LIG A   1      22.410  16.899   8.123  1.00 20.00    +0.029 H 
ATOM     65 H65  LIG A   1      23.043  15.410   8.770  1.00 20.00    +0.029 H 
ATOM     66 H66  LIG A   1      20.048  15.622   8.532  1.00 20.00    +0.028 H 
ATOM     67 H67  LIG A   1      21.000  14.600   9.530  1.00 20.00    +0.028 H 
ATOM     68 H68  LIG A   1      21.684  16.448  10.931  1.00 20.00    +0.047 H 
ATOM     69 H69  LIG A   1      19.194  15.188  12.719  1.00 20.00    +0.296 HD
ATOM     70 H70  LIG A   1      22.347  18.491  11.388  1.00 20.00    +0.063 H 
ATOM     71 H71  LIG A   1      22.246  20.893  11.241  1.00 20.00    +0.064 H 
ATOM     72 H72  LIG A   1      19.485  22.653   9.532  1.00 20.00    +0.160 HD
ATOM     73 H73  LIG A   1      21.045  24.272  10.256  1.00 20.00    +0.049 H 
ATOM     74 H74  LIG A   1      22.121  23.038  10.869  1.00 20.00    +0.049 H 
ATOM     75 H75  LIG A   1      20.294  22.371  12.539  1.00 20.00    +0.030 H 
ATOM     76 H76  LIG A   1      19.276  23.647  11.883  1.00 20.00    +0.030 H 
ATOM     77 H77  LIG A   1      22.017  24.046  13.201  1.00 20.00    +0.043 H 
ATOM     78 H78  LIG A   1      21.025  25.342  12.505  1.00 20.00    +0.043 H 
ATOM     79 H79  LIG A   1      20.166  23.531  14.666  1.00 20.00    +0.122 HD
ATOM     80 H80  LIG A   1      21.872  25.646  14.945  1.00 20.00    +0.043 H 
ATOM     81 H81  LIG A   1      20.911  24.857  16.172  1.00 20.00    +0.043 H 
ATOM     82 H82  LIG A   1      20.379  27.187  16.278  1.00 20.00    +0.028 H 
ATOM     83 H83  LIG A   1      18.970  26.314  15.723  1.00 20.00    +0.028 H 
ATOM     84 H84  LIG A   1      19.159  28.370  14.475  1.00 20.00    +0.028 H 
ATOM     85 H85  LIG A   1      19.376  27.017  13.385  1.00 20.00    +0.028 H 
ATOM     86 H86  LIG A   1      20.954  28.767  12.819  1.00 20.00    +0.043 H 
ATOM     87 H87  LIG A   1      21.868  27.391  13.406  1.00 20.00    +0.043 H 
ATOM     88 H88  LIG A   1      22.037  28.495  15.533  1.00 20.00    +0.118 HD
ATOM     89 H89  LIG A   1      21.149  29.750  14.999  1.00 20.00    +0.118 HD
ATOM     90 H90  LIG A   1      18.868  20.616   8.607  1.00 20.00    +0.068 H 
ATOM     91 H91  LIG A   1      20.183  13.214   5.938  1.00 20.00    +0.057 H 
ATOM     92 H92  LIG A   1      22.526  13.183   5.097  1.00 20.00    +0.119 HD
ATOM     93 H93  LIG A   1      21.696  11.792   4.854  1.00 20.00    +0.119 HD
ATOM     94 H94  LIG A   1      20.900  15.284   9.710  1.00 20.00    +0.296 HD
ATOM     95 H95  LIG A   1      20.349  18.398   7.344  1.00 20.00    +0.055 H 
ATOM     96 H96  LIG A   1      18.821  17.773   8.039  1.00 20.00    +0.055 H 
ATOM     97 H97  LIG A   1      19.844  18.288  10.234  1.00 20.00    +0.123 HD
ATOM     98 H98  LIG A   1      19.505  20.563   8.359  1.00 20.00    +0.044 H 
ATOM     99 H99  LIG A   1      18.220  19.766   9.274  1.00 20.00    +0.044 H 
ATOM    100 H100 LIG A   1      18.845  21.847  10.406  1.00 20.00    +0.039 H 
ATOM    101 H101 LIG A   1      19.291  20.472  11.425  1.00 20.00    +0.039 H 
ATOM    102 H102 LIG A   1      21.792  20.392  10.336  1.00 20.00    +0.102 HD
ENDROOT
TORSDOF 0
                                                                                                         
ENDMDL
MODEL 5
REMARK VINA RESULT:   -10.713      5.675     11.900
REMARK INTER + INTRA:         -10.713
REMARK INTER:                 -10.713
REMARK INTRA:                   0.000
REMARK UNBOUND:                 0.000
ROOT
ATOM      1 C1   LIG A   1      24.284  23.188  12.212  1.00 20.00    -0.060 C 
ATOM      2 C2   LIG A   1      23.062  22.653  11.441  1.00 20.00    -0.016 C 
ATOM      3 C3   LIG A   1      23.071  23.364  10.043  1.00 20.00    -0.023 C 
ATOM      4 C4   LIG A   1      22.115  22.767   9.049  1.00 20.00    -0.048 A 
ATOM      5 C5   LIG A   1      22.608  21.977   8.007  1.00 20.00    -0.058 A 
ATOM      6 C6   LIG A   1      21.781  21.027   7.423  1.00 20.00    -0.051 A 
ATOM      7 C7   LIG A   1      20.496  20.834   7.936  1.00 20.00    +0.017 A 
ATOM      8 C8   LIG A   1      19.925  21.832   8.735  1.00 20.00    -0.051 A 
ATOM      9 C9   LIG A   1      20.739  22.816   9.286  1.00 20.00    -0.058 A 
ATOM     10 C10  LIG A   1      19.862  19.502   7.860  1.00 20.00    +0.140 C 
ATOM     11 C11  LIG A   1      19.490  18.827   8.970  1.00 20.00    +0.047 C 
ATOM     12 C12  LIG A   1      19.926  19.061  10.386  1.00 20.00    +0.256 C 
ATOM     13 O13  LIG A   1      19.225  18.610  11.292  1.00 20.00    -0.269 OA
ATOM     14 N14  LIG A   1      21.269  19.387  10.530  1.00 20.00    -0.278 NA
ATOM     15 C15  LIG A   1      22.196  18.247  10.620  1.00 20.00    +0.029 C 
ATOM     16 C16  LIG A   1      22.041  17.126   9.562  1.00 20.00    -0.034 C 
ATOM     17 C17  LIG A   1      22.519  17.568   8.175  1.00 20.00    -0.034 C 
ATOM     18 C18  LIG A   1      22.038  16.714   6.985  1.00 20.00    +0.085 C 
ATOM     19 C19  LIG A   1      22.766  17.196   5.736  1.00 20.00    +0.311 C 
ATOM     20 O20  LIG A   1      22.536  18.195   5.075  1.00 20.00    -0.252 OA
ATOM     21 O21  LIG A   1      23.806  16.400   5.406  1.00 20.00    -0.481 OA
ATOM     22 C22  LIG A   1      20.544  16.559   6.711  1.00 20.00    +0.009 A 
ATOM     23 C23  LIG A   1      20.056  15.241   6.608  1.00 20.00    -0.052 A 
ATOM     24 C24  LIG A   1      18.724  14.964   6.262  1.00 20.00    -0.038 A 
ATOM     25 C25  LIG A   1      17.826  15.985   5.957  1.00 20.00    +0.038 A 
ATOM     26 N26  LIG A   1      16.481  15.780   5.660  1.00 20.00    -0.385 NA
ATOM     27 C27  LIG A   1      15.969  14.492   5.205  1.00 20.00    +0.016 C 
ATOM     28 C28  LIG A   1      16.356  14.218   3.751  1.00 20.00    -0.023 C 
ATOM     29 C29  LIG A   1      15.779  12.882   3.279  1.00 20.00    -0.003 C 
ATOM     30 N30  LIG A   1      16.118  12.665   1.872  1.00 20.00    -0.317 NA
ATOM     31 C31  LIG A   1      15.631  11.381   1.367  1.00 20.00    -0.005 C 
ATOM     32 C32  LIG A   1      14.518  11.568   0.332  1.00 20.00    -0.039 C 
ATOM     33 C33  LIG A   1      13.208  12.155   0.869  1.00 20.00    -0.040 C 
ATOM     34 C34  LIG A   1      12.502  11.315   1.937  1.00 20.00    -0.008 C 
ATOM     35 N35  LIG A   1      12.079  10.007   1.449  1.00 20.00    -0.330 NA
ATOM     36 C36  LIG A   1      18.289  17.298   6.094  1.00 20.00    +0.004 A 
ATOM     37 C37  LIG A   1      19.613  17.587   6.472  1.00 20.00    +0.133 A 
ATOM     38 O38  LIG A   1      19.900  18.932   6.584  1.00 20.00    -0.456 OA
ATOM     39 C39  LIG A   1      21.508  20.555  11.268  1.00 20.00    +0.246 C 
ATOM     40 O40  LIG A   1      20.594  21.191  11.805  1.00 20.00    -0.273 OA
ATOM     41 C41  LIG A   1      22.996  21.070  11.390  1.00 20.00    +0.088 C 
ATOM     42 N42  LIG A   1      23.556  20.482  12.628  1.00 20.00    -0.320 NA
ATOM     43 O43  LIG A   1      21.740  18.391   9.252  1.00 20.00    -0.251 OA
ATOM     44 C44  LIG A   1      21.366  18.043   8.144  1.00 20.00    +0.317 C 
ATOM     45 O45  LIG A   1      22.225  17.435   7.293  1.00 20.00    -0.480 OA
ATOM     46 C46  LIG A   1      19.993  18.302   7.534  1.00 20.00    +0.094 C 
ATOM     47 N47  LIG A   1      19.610  17.203   6.627  1.00 20.00    -0.306 NA
ATOM     48 C48  LIG A   1      18.412  17.551   5.854  1.00 20.00    +0.005 C 
ATOM     49 C49  LIG A   1      17.968  16.409   4.931  1.00 20.00    +0.003 C 
ATOM     50 S50  LIG A   1      17.484  14.923   5.864  1.00 20.00    -0.178 SA
ATOM     51 H51  LIG A   1      24.241  22.918  13.271  1.00 20.00    +0.023 H 
ATOM     52 H52  LIG A   1      24.321  24.284  12.168  1.00 20.00    +0.023 H 
ATOM     53 H53  LIG A   1      25.218  22.804  11.790  1.00 20.00    +0.023 H 
ATOM     54 H54  LIG A   1      22.178  23.017  11.981  1.00 20.00    +0.032 H 
ATOM     55 H55  LIG A   1      24.087  23.336   9.629  1.00 20.00    +0.032 H 
ATOM     56 H56  LIG A   1      22.830  24.428  10.173  1.00 20.00    +0.032 H 
ATOM     57 H57  LIG A   1      23.661  21.997   7.738  1.00 20.00    +0.063 H 
ATOM     58 H58  LIG A   1      22.200  20.342   6.691  1.00 20.00    +0.063 H 
ATOM     59 H59  LIG A   1      18.898  21.749   9.089  1.00 20.00    +0.063 H 
ATOM     60 H60  LIG A   1      20.329  23.469  10.055  1.00 20.00    +0.063 H 
ATOM     61 H61  LIG A   1      18.956  17.883   8.900  1.00 20.00    +0.072 H 
ATOM     62 H62  LIG A   1      22.042  17.802  11.612  1.00 20.00    +0.050 H 
ATOM     63 H63  LIG A   1      23.229  18.602  10.590  1.00 20.00    +0.050 H 
ATOM     64 H64  LIG A   1      21.015  16.750   9.539  1.00 20.00    +0.029 H 
ATOM     65 H65  LIG A   1      22.658  16.274   9.875  1.00 20.00    +0.029 H 
ATOM     66 H66  LIG A   1      22.273  18.606   8.008  1.00 20.00    +0.028 H 
ATOM     67 H67  LIG A   1      23.619  17.556   8.189  1.00 20.00    +0.028 H 
ATOM     68 H68  LIG A   1      22.429  15.706   7.188  1.00 20.00    +0.047 H 
ATOM     69 H69  LIG A   1      24.166  16.815   4.593  1.00 20.00    +0.296 HD
ATOM     70 H70  LIG A   1      20.713  14.393   6.791  1.00 20.00    +0.063 H 
ATOM     71 H71  LIG A   1      18.420  13.924   6.225  1.00 20.00    +0.064 H 
ATOM     72 H72  LIG A   1      16.068  16.567   5.165  1.00 20.00    +0.160 HD
ATOM     73 H73  LIG A   1      14.875  14.531   5.279  1.00 20.00    +0.049 H 
ATOM     74 H74  LIG A   1      16.283  13.678   5.867  1.00 20.00    +0.049 H 
ATOM     75 H75  LIG A   1      17.448  14.207   3.646  1.00 20.00    +0.030 H 
ATOM     76 H76  LIG A   1      15.987  15.032   3.115  1.00 20.00    +0.030 H 
ATOM     77 H77  LIG A   1      16.186  12.073   3.898  1.00 20.00    +0.043 H 
ATOM     78 H78  LIG A   1      14.692  12.897   3.408  1.00 20.00    +0.043 H 
ATOM     79 H79  LIG A   1      17.133  12.704   1.767  1.00 20.00    +0.122 HD
ATOM     80 H80  LIG A   1      15.322  10.699   2.168  1.00 20.00    +0.043 H 
ATOM     81 H81  LIG A   1      16.469  10.882   0.864  1.00 20.00    +0.043 H 
ATOM     82 H82  LIG A   1      14.320  10.601  -0.148  1.00 20.00    +0.028 H 
ATOM     83 H83  LIG A   1      14.884  12.224  -0.469  1.00 20.00    +0.028 H 
ATOM     84 H84  LIG A   1      12.524  12.299   0.022  1.00 20.00    +0.028 H 
ATOM     85 H85  LIG A   1      13.396  13.156   1.274  1.00 20.00    +0.028 H 
ATOM     86 H86  LIG A   1      11.614  11.856   2.279  1.00 20.00    +0.043 H 
ATOM     87 H87  LIG A   1      13.139  11.178   2.815  1.00 20.00    +0.043 H 
ATOM     88 H88  LIG A   1      12.887   9.467   1.147  1.00 20.00    +0.118 HD
ATOM     89 H89  LIG A   1      11.495  10.127   0.622  1.00 20.00    +0.118 HD
ATOM     90 H90  LIG A   1      17.609  18.129   5.920  1.00 20.00    +0.068 H 
ATOM     91 H91  LIG A   1      23.581  20.717  10.534  1.00 20.00    +0.057 H 
ATOM     92 H92  LIG A   1      23.383  19.481  12.687  1.00 20.00    +0.119 HD
ATOM     93 H93  LIG A   1      24.563  20.618  12.658  1.00 20.00    +0.119 HD
ATOM     94 H94  LIG A   1      23.044  17.342   7.825  1.00 20.00    +0.296 HD
ATOM     95 H95  LIG A   1      19.267  18.371   8.350  1.00 20.00    +0.055 H 
ATOM     96 H96  LIG A   1      20.049  19.259   7.005  1.00 20.00    +0.055 H 
ATOM     97 H97  LIG A   1      20.399  17.022   6.001  1.00 20.00    +0.123 HD
ATOM     98 H98  LIG A   1      17.590  17.815   6.531  1.00 20.00    +0.044 H 
ATOM     99 H99  LIG A   1      18.621  18.432   5.234  1.00 20.00    +0.044 H 
ATOM    100 H100 LIG A   1      17.114  16.728   4.326  1.00 20.00    +0.039 H 
ATOM    101 H101 LIG A   1      18.778  16.137   4.245  1.00 20.00    +0.039 H 
ATOM    102 H102 LIG A   1      18.543  14.947   6.691  1.00 20.00    +0.102 HD
ENDROOT
TORSDOF 0
                                                                                                         
ENDMDL
MODEL 6
REMARK VINA RESULT:   -10.689      5.920     11.160
REMARK INTER + INTRA:         -10.689
REMARK INTER:                 -10.689
REMARK INTRA:                   0.000
REMARK UNBOUND:                 0.000
ROOT
ATOM      1 C1   LIG A   1      25.883  22.020  13.648  1.00 20.00    -0.060 C 
ATOM      2 C2   LIG A   1      24.621  21.224  13.261  1.00 20.00    -0.016 C 
ATOM      3 C3   LIG A   1      23.467  22.273  13.096  1.00 20.00    -0.023 C 
ATOM      4 C4   LIG A   1      22.226  21.719  12.453  1.00 20.00    -0.048 A 
ATOM      5 C5   LIG A   1      21.933  22.044  11.126  1.00 20.00    -0.058 A 
ATOM      6 C6   LIG A   1      21.145  21.185  10.372  1.00 20.00    -0.051 A 
ATOM      7 C7   LIG A   1      20.719  19.980  10.936  1.00 20.00    +0.017 A 
ATOM      8 C8   LIG A   1      20.744  19.834  12.328  1.00 20.00    -0.051 A 
ATOM      9 C9   LIG A   1      21.493  20.719  13.095  1.00 20.00    -0.058 A 
ATOM     10 C10  LIG A   1      20.502  18.798  10.076  1.00 20.00    +0.140 C 
ATOM     11 C11  LIG A   1      21.202  17.654  10.250  1.00 20.00    +0.047 C 
ATOM     12 C12  LIG A   1      22.480  17.457  11.008  1.00 20.00    +0.256 C 
ATOM     13 O13  LIG A   1      22.773  16.317  11.367  1.00 20.00    -0.269 OA
ATOM     14 N14  LIG A   1      23.401  18.488  10.866  1.00 20.00    -0.278 NA
ATOM     15 C15  LIG A   1      24.288  18.394   9.695  1.00 20.00    +0.029 C 
ATOM     16 C16  LIG A   1      23.623  18.096   8.328  1.00 20.00    -0.034 C 
ATOM     17 C17  LIG A   1      22.834  19.295   7.792  1.00 20.00    -0.034 C 
ATOM     18 C18  LIG A   1      21.809  18.994   6.681  1.00 20.00    +0.085 C 
ATOM     19 C19  LIG A   1      21.277  20.324   6.161  1.00 20.00    +0.311 C 
ATOM     20 O20  LIG A   1      20.452  21.056   6.683  1.00 20.00    -0.252 OA
ATOM     21 O21  LIG A   1      21.864  20.697   5.003  1.00 20.00    -0.481 OA
ATOM     22 C22  LIG A   1      20.662  18.021   6.943  1.00 20.00    +0.009 A 
ATOM     23 C23  LIG A   1      20.518  16.957   6.030  1.00 20.00    -0.052 A 
ATOM     24 C24  LIG A   1      19.447  16.053   6.103  1.00 20.00    -0.038 A 
ATOM     25 C25  LIG A   1      18.444  16.191   7.059  1.00 20.00    +0.038 A 
ATOM     26 N26  LIG A   1      17.387  15.299   7.219  1.00 20.00    -0.385 NA
ATOM     27 C27  LIG A   1      16.963  14.393   6.156  1.00 20.00    +0.016 C 
ATOM     28 C28  LIG A   1      16.200  15.136   5.058  1.00 20.00    -0.023 C 
ATOM     29 C29  LIG A   1      15.731  14.167   3.972  1.00 20.00    -0.003 C 
ATOM     30 N30  LIG A   1      14.962  14.891   2.960  1.00 20.00    -0.317 NA
ATOM     31 C31  LIG A   1      14.517  14.026   1.866  1.00 20.00    -0.005 C 
ATOM     32 C32  LIG A   1      12.995  13.850   1.870  1.00 20.00    -0.039 C 
ATOM     33 C33  LIG A   1      12.422  13.080   3.066  1.00 20.00    -0.040 C 
ATOM     34 C34  LIG A   1      12.904  11.633   3.205  1.00 20.00    -0.008 C 
ATOM     35 N35  LIG A   1      12.518  10.790   2.079  1.00 20.00    -0.330 NA
ATOM     36 C36  LIG A   1      18.598  17.219   7.995  1.00 20.00    +0.004 A 
ATOM     37 C37  LIG A   1      19.685  18.112   7.951  1.00 20.00    +0.133 A 
ATOM     38 O38  LIG A   1      19.699  19.052   8.960  1.00 20.00    -0.456 OA
ATOM     39 C39  LIG A   1      23.877  19.013  12.075  1.00 20.00    +0.246 C 
ATOM     40 O40  LIG A   1      23.554  18.538  13.170  1.00 20.00    -0.273 OA
ATOM     41 C41  LIG A   1      24.840  20.263  12.019  1.00 20.00    +0.088 C 
ATOM     42 N42  LIG A   1      26.225  19.740  11.999  1.00 20.00    -0.320 NA
ATOM     43 O43  LIG A   1      22.960  18.781   9.264  1.00 20.00    -0.251 OA
ATOM     44 C44  LIG A   1      21.968  18.816   8.553  1.00 20.00    +0.317 C 
ATOM     45 O45  LIG A   1      22.021  19.411   7.338  1.00 20.00    -0.480 OA
ATOM     46 C46  LIG A   1      20.576  18.319   8.924  1.00 20.00    +0.094 C 
ATOM     47 N47  LIG A   1      19.869  17.813   7.732  1.00 20.00    -0.306 NA
ATOM     48 C48  LIG A   1      18.454  17.559   8.027  1.00 20.00    +0.005 C 
ATOM     49 C49  LIG A   1      17.704  16.994   6.814  1.00 20.00    +0.003 C 
ATOM     50 S50  LIG A   1      18.354  15.373   6.301  1.00 20.00    -0.178 SA
ATOM     51 H51  LIG A   1      26.683  21.360  13.996  1.00 20.00    +0.023 H 
ATOM     52 H52  LIG A   1      25.667  22.714  14.469  1.00 20.00    +0.023 H 
ATOM     53 H53  LIG A   1      26.256  22.606  12.802  1.00 20.00    +0.023 H 
ATOM     54 H54  LIG A   1      24.371  20.607  14.134  1.00 20.00    +0.032 H 
ATOM     55 H55  LIG A   1      23.831  23.123  12.504  1.00 20.00    +0.032 H 
ATOM     56 H56  LIG A   1      23.203  22.685  14.079  1.00 20.00    +0.032 H 
ATOM     57 H57  LIG A   1      22.420  22.883  10.633  1.00 20.00    +0.063 H 
ATOM     58 H58  LIG A   1      21.011  21.385   9.312  1.00 20.00    +0.063 H 
ATOM     59 H59  LIG A   1      20.348  18.937  12.804  1.00 20.00    +0.063 H 
ATOM     60 H60  LIG A   1      21.665  20.489  14.145  1.00 20.00    +0.063 H 
ATOM     61 H61  LIG A   1      20.980  16.767   9.662  1.00 20.00    +0.072 H 
ATOM     62 H62  LIG A   1      24.999  17.586   9.910  1.00 20.00    +0.050 H 
ATOM     63 H63  LIG A   1      24.873  19.312   9.595  1.00 20.00    +0.050 H 
ATOM     64 H64  LIG A   1      23.008  17.194   8.381  1.00 20.00    +0.029 H 
ATOM     65 H65  LIG A   1      24.416  17.866   7.606  1.00 20.00    +0.029 H 
ATOM     66 H66  LIG A   1      22.354  19.820   8.606  1.00 20.00    +0.028 H 
ATOM     67 H67  LIG A   1      23.564  20.021   7.405  1.00 20.00    +0.028 H 
ATOM     68 H68  LIG A   1      22.404  18.568   5.859  1.00 20.00    +0.047 H 
ATOM     69 H69  LIG A   1      21.425  21.546   4.783  1.00 20.00    +0.296 HD
ATOM     70 H70  LIG A   1      21.242  16.815   5.229  1.00 20.00    +0.063 H 
ATOM     71 H71  LIG A   1      19.419  15.248   5.376  1.00 20.00    +0.064 H 
ATOM     72 H72  LIG A   1      16.604  15.708   7.724  1.00 20.00    +0.160 HD
ATOM     73 H73  LIG A   1      16.295  13.649   6.608  1.00 20.00    +0.049 H 
ATOM     74 H74  LIG A   1      17.807  13.826   5.750  1.00 20.00    +0.049 H 
ATOM     75 H75  LIG A   1      16.838  15.910   4.613  1.00 20.00    +0.030 H 
ATOM     76 H76  LIG A   1      15.339  15.654   5.498  1.00 20.00    +0.030 H 
ATOM     77 H77  LIG A   1      16.604  13.684   3.514  1.00 20.00    +0.043 H 
ATOM     78 H78  LIG A   1      15.113  13.388   4.431  1.00 20.00    +0.043 H 
ATOM     79 H79  LIG A   1      15.540  15.642   2.580  1.00 20.00    +0.122 HD
ATOM     80 H80  LIG A   1      15.031  13.059   1.853  1.00 20.00    +0.043 H 
ATOM     81 H81  LIG A   1      14.789  14.517   0.923  1.00 20.00    +0.043 H 
ATOM     82 H82  LIG A   1      12.697  13.357   0.936  1.00 20.00    +0.028 H 
ATOM     83 H83  LIG A   1      12.522  14.841   1.844  1.00 20.00    +0.028 H 
ATOM     84 H84  LIG A   1      11.327  13.082   2.983  1.00 20.00    +0.028 H 
ATOM     85 H85  LIG A   1      12.653  13.619   3.991  1.00 20.00    +0.028 H 
ATOM     86 H86  LIG A   1      12.473  11.206   4.117  1.00 20.00    +0.043 H 
ATOM     87 H87  LIG A   1      13.990  11.590   3.326  1.00 20.00    +0.043 H 
ATOM     88 H88  LIG A   1      12.926  11.147   1.218  1.00 20.00    +0.118 HD
ATOM     89 H89  LIG A   1      11.507  10.836   1.952  1.00 20.00    +0.118 HD
ATOM     90 H90  LIG A   1      17.869  17.333   8.794  1.00 20.00    +0.068 H 
ATOM     91 H91  LIG A   1      24.661  20.828  11.098  1.00 20.00    +0.057 H 
ATOM     92 H92  LIG A   1      26.345  19.005  11.308  1.00 20.00    +0.119 HD
ATOM     93 H93  LIG A   1      26.879  20.484  11.768  1.00 20.00    +0.119 HD
ATOM     94 H94  LIG A   1      22.962  19.669   7.251  1.00 20.00    +0.296 HD
ATOM     95 H95  LIG A   1      20.687  17.510   9.652  1.00 20.00    +0.055 H 
ATOM     96 H96  LIG A   1      20.043  19.160   9.380  1.00 20.00    +0.055 H 
ATOM     97 H97  LIG A   1      19.959  18.514   6.991  1.00 20.00    +0.123 HD
ATOM     98 H98  LIG A   1      18.363  16.863   8.870  1.00 20.00    +0.044 H 
ATOM     99 H99  LIG A   1      17.968  18.497   8.323  1.00 20.00    +0.044 H 
ATOM    100 H100 LIG A   1      16.641  16.878   7.051  1.00 20.00    +0.039 H 
ATOM    101 H101 LIG A   1      17.781  17.681   5.964  1.00 20.00    +0.039 H 
ATOM    102 H102 LIG A   1      19.646  15.731   6.373  1.00 20.00    +0.102 HD
ENDROOT
TORSDOF 0
                                                                                                         
ENDMDL
MODEL 7
REMARK VINA RESULT:   -10.296      2.186      3.249
REMARK INTER + INTRA:         -10.296
REMARK INTER:                 -10.296
REMARK INTRA:                   0.000
REMARK UNBOUND:                 0.000
ROOT
ATOM      1 C1   LIG A   1      25.059  17.374   8.979  1.00 20.00    -0.060 C 
ATOM      2 C2   LIG A   1      24.111  18.006  10.015  1.00 20.00    -0.016 C 
ATOM      3 C3   LIG A   1      24.968  18.269  11.302  1.00 20.00    -0.023 C 
ATOM      4 C4   LIG A   1      24.286  19.133  12.325  1.00 20.00    -0.048 A 
ATOM      5 C5   LIG A   1      24.687  20.462  12.484  1.00 20.00    -0.058 A 
ATOM      6 C6   LIG A   1      23.789  21.388  12.998  1.00 20.00    -0.051 A 
ATOM      7 C7   LIG A   1      22.482  20.985  13.280  1.00 20.00    +0.017 A 
ATOM      8 C8   LIG A   1      22.206  19.620  13.423  1.00 20.00    -0.051 A 
ATOM      9 C9   LIG A   1      23.122  18.684  12.954  1.00 20.00    -0.058 A 
ATOM     10 C10  LIG A   1      21.370  21.951  13.166  1.00 20.00    +0.140 C 
ATOM     11 C11  LIG A   1      20.344  21.756  12.308  1.00 20.00    +0.047 C 
ATOM     12 C12  LIG A   1      20.283  20.828  11.131  1.00 20.00    +0.256 C 
ATOM     13 O13  LIG A   1      19.177  20.513  10.696  1.00 20.00    -0.269 OA
ATOM     14 N14  LIG A   1      21.460  20.753  10.395  1.00 20.00    -0.278 NA
ATOM     15 C15  LIG A   1      21.626  21.778   9.352  1.00 20.00    +0.029 C 
ATOM     16 C16  LIG A   1      21.359  23.248   9.759  1.00 20.00    -0.034 C 
ATOM     17 C17  LIG A   1      22.460  23.810  10.664  1.00 20.00    -0.034 C 
ATOM     18 C18  LIG A   1      22.107  25.083  11.457  1.00 20.00    +0.085 C 
ATOM     19 C19  LIG A   1      23.376  25.580  12.137  1.00 20.00    +0.311 C 
ATOM     20 O20  LIG A   1      23.910  25.138  13.141  1.00 20.00    -0.252 OA
ATOM     21 O21  LIG A   1      23.951  26.605  11.470  1.00 20.00    -0.481 OA
ATOM     22 C22  LIG A   1      20.939  25.071  12.441  1.00 20.00    +0.009 A 
ATOM     23 C23  LIG A   1      19.960  26.070  12.269  1.00 20.00    -0.052 A 
ATOM     24 C24  LIG A   1      18.891  26.228  13.165  1.00 20.00    -0.038 A 
ATOM     25 C25  LIG A   1      18.770  25.428  14.299  1.00 20.00    +0.038 A 
ATOM     26 N26  LIG A   1      17.706  25.498  15.195  1.00 20.00    -0.385 NA
ATOM     27 C27  LIG A   1      16.852  26.675  15.303  1.00 20.00    +0.016 C 
ATOM     28 C28  LIG A   1      17.565  27.820  16.025  1.00 20.00    -0.023 C 
ATOM     29 C29  LIG A   1      16.643  29.032  16.162  1.00 20.00    -0.003 C 
ATOM     30 N30  LIG A   1      17.328  30.095  16.899  1.00 20.00    -0.317 NA
ATOM     31 C31  LIG A   1      16.513  31.304  17.031  1.00 20.00    -0.005 C 
ATOM     32 C32  LIG A   1      16.092  31.545  18.484  1.00 20.00    -0.039 C 
ATOM     33 C33  LIG A   1      15.126  30.510  19.072  1.00 20.00    -0.040 C 
ATOM     34 C34  LIG A   1      13.771  30.405  18.368  1.00 20.00    -0.008 C 
ATOM     35 N35  LIG A   1      12.990  31.634  18.442  1.00 20.00    -0.330 NA
ATOM     36 C36  LIG A   1      19.713  24.408  14.458  1.00 20.00    +0.004 A 
ATOM     37 C37  LIG A   1      20.771  24.220  13.549  1.00 20.00    +0.133 A 
ATOM     38 O38  LIG A   1      21.598  23.155  13.839  1.00 20.00    -0.456 OA
ATOM     39 C39  LIG A   1      21.934  19.449  10.190  1.00 20.00    +0.246 C 
ATOM     40 O40  LIG A   1      21.309  18.455  10.573  1.00 20.00    -0.273 OA
ATOM     41 C41  LIG A   1      23.324  19.267   9.462  1.00 20.00    +0.088 C 
ATOM     42 N42  LIG A   1      23.038  19.113   8.018  1.00 20.00    -0.320 NA
ATOM     43 O43  LIG A   1      21.832  22.378  10.655  1.00 20.00    -0.251 OA
ATOM     44 C44  LIG A   1      21.775  23.227  11.530  1.00 20.00    +0.317 C 
ATOM     45 O45  LIG A   1      22.486  24.373  11.415  1.00 20.00    -0.480 OA
ATOM     46 C46  LIG A   1      21.024  23.110  12.851  1.00 20.00    +0.094 C 
ATOM     47 N47  LIG A   1      20.529  24.430  13.287  1.00 20.00    -0.306 NA
ATOM     48 C48  LIG A   1      20.020  24.373  14.662  1.00 20.00    +0.005 C 
ATOM     49 C49  LIG A   1      19.462  25.725  15.127  1.00 20.00    +0.003 C 
ATOM     50 S50  LIG A   1      18.026  26.249  14.139  1.00 20.00    -0.178 SA
ATOM     51 H51  LIG A   1      24.507  16.957   8.131  1.00 20.00    +0.023 H 
ATOM     52 H52  LIG A   1      25.625  16.547   9.424  1.00 20.00    +0.023 H 
ATOM     53 H53  LIG A   1      25.778  18.108   8.601  1.00 20.00    +0.023 H 
ATOM     54 H54  LIG A   1      23.379  17.229  10.272  1.00 20.00    +0.032 H 
ATOM     55 H55  LIG A   1      25.920  18.735  11.014  1.00 20.00    +0.032 H 
ATOM     56 H56  LIG A   1      25.234  17.310  11.767  1.00 20.00    +0.032 H 
ATOM     57 H57  LIG A   1      25.638  20.812  12.089  1.00 20.00    +0.063 H 
ATOM     58 H58  LIG A   1      24.068  22.438  13.017  1.00 20.00    +0.063 H 
ATOM     59 H59  LIG A   1      21.215  19.275  13.717  1.00 20.00    +0.063 H 
ATOM     60 H60  LIG A   1      22.821  17.640  12.890  1.00 20.00    +0.063 H 
ATOM     61 H61  LIG A   1      19.494  22.434  12.287  1.00 20.00    +0.072 H 
ATOM     62 H62  LIG A   1      20.927  21.516   8.547  1.00 20.00    +0.050 H 
ATOM     63 H63  LIG A   1      22.632  21.721   8.929  1.00 20.00    +0.050 H 
ATOM     64 H64  LIG A   1      20.368  23.355  10.208  1.00 20.00    +0.029 H 
ATOM     65 H65  LIG A   1      21.332  23.856   8.846  1.00 20.00    +0.029 H 
ATOM     66 H66  LIG A   1      22.818  23.043  11.336  1.00 20.00    +0.028 H 
ATOM     67 H67  LIG A   1      23.329  24.027  10.026  1.00 20.00    +0.028 H 
ATOM     68 H68  LIG A   1      21.865  25.833  10.689  1.00 20.00    +0.047 H 
ATOM     69 H69  LIG A   1      24.735  26.827  12.017  1.00 20.00    +0.296 HD
ATOM     70 H70  LIG A   1      20.016  26.759  11.428  1.00 20.00    +0.063 H 
ATOM     71 H71  LIG A   1      18.167  27.007  12.951  1.00 20.00    +0.064 H 
ATOM     72 H72  LIG A   1      17.932  25.089  16.099  1.00 20.00    +0.160 HD
ATOM     73 H73  LIG A   1      15.969  26.386  15.886  1.00 20.00    +0.049 H 
ATOM     74 H74  LIG A   1      16.473  26.988  14.324  1.00 20.00    +0.049 H 
ATOM     75 H75  LIG A   1      18.472  28.105  15.477  1.00 20.00    +0.030 H 
ATOM     76 H76  LIG A   1      17.890  27.481  17.016  1.00 20.00    +0.030 H 
ATOM     77 H77  LIG A   1      16.356  29.386  15.164  1.00 20.00    +0.043 H 
ATOM     78 H78  LIG A   1      15.733  28.731  16.692  1.00 20.00    +0.043 H 
ATOM     79 H79  LIG A   1      18.196  30.326  16.415  1.00 20.00    +0.122 HD
ATOM     80 H80  LIG A   1      15.649  31.309  16.358  1.00 20.00    +0.043 H 
ATOM     81 H81  LIG A   1      17.131  32.157  16.721  1.00 20.00    +0.043 H 
ATOM     82 H82  LIG A   1      15.651  32.547  18.559  1.00 20.00    +0.028 H 
ATOM     83 H83  LIG A   1      16.990  31.572  19.115  1.00 20.00    +0.028 H 
ATOM     84 H84  LIG A   1      14.959  30.759  20.129  1.00 20.00    +0.028 H 
ATOM     85 H85  LIG A   1      15.603  29.524  19.070  1.00 20.00    +0.028 H 
ATOM     86 H86  LIG A   1      13.192  29.603  18.840  1.00 20.00    +0.043 H 
ATOM     87 H87  LIG A   1      13.893  30.123  17.319  1.00 20.00    +0.043 H 
ATOM     88 H88  LIG A   1      13.491  32.395  17.987  1.00 20.00    +0.118 HD
ATOM     89 H89  LIG A   1      12.883  31.911  19.417  1.00 20.00    +0.118 HD
ATOM     90 H90  LIG A   1      19.628  23.723  15.299  1.00 20.00    +0.068 H 
ATOM     91 H91  LIG A   1      23.939  20.161   9.609  1.00 20.00    +0.057 H 
ATOM     92 H92  LIG A   1      22.403  19.830   7.677  1.00 20.00    +0.119 HD
ATOM     93 H93  LIG A   1      23.897  19.187   7.479  1.00 20.00    +0.119 HD
ATOM     94 H94  LIG A   1      22.901  24.296  10.530  1.00 20.00    +0.296 HD
ATOM     95 H95  LIG A   1      20.177  22.434  12.701  1.00 20.00    +0.055 H 
ATOM     96 H96  LIG A   1      21.718  22.681  13.580  1.00 20.00    +0.055 H 
ATOM     97 H97  LIG A   1      21.304  25.095  13.219  1.00 20.00    +0.123 HD
ATOM     98 H98  LIG A   1      19.240  23.607  14.745  1.00 20.00    +0.044 H 
ATOM     99 H99  LIG A   1      20.833  24.087  15.341  1.00 20.00    +0.044 H 
ATOM    100 H100 LIG A   1      19.152  25.661  16.175  1.00 20.00    +0.039 H 
ATOM    101 H101 LIG A   1      20.232  26.501  15.055  1.00 20.00    +0.039 H 
ATOM    102 H102 LIG A   1      18.580  25.955  12.951  1.00 20.00    +0.102 HD
ENDROOT
TORSDOF 0
                                                                                                         
ENDMDL
MODEL 8
REMARK VINA RESULT:   -10.199      3.056      5.398
REMARK INTER + INTRA:         -10.199
REMARK INTER:                 -10.199
REMARK INTRA:                   0.000
REMARK UNBOUND:                 0.000
ROOT
ATOM      1 C1   LIG A   1      22.859  12.564   3.859  1.00 20.00    -0.060 C 
ATOM      2 C2   LIG A   1      22.643  14.033   4.267  1.00 20.00    -0.016 C 
ATOM      3 C3   LIG A   1      21.206  14.426   3.776  1.00 20.00    -0.023 C 
ATOM      4 C4   LIG A   1      20.710  15.734   4.324  1.00 20.00    -0.048 A 
ATOM      5 C5   LIG A   1      19.741  15.737   5.331  1.00 20.00    -0.058 A 
ATOM      6 C6   LIG A   1      19.652  16.826   6.188  1.00 20.00    -0.051 A 
ATOM      7 C7   LIG A   1      20.580  17.864   6.069  1.00 20.00    +0.017 A 
ATOM      8 C8   LIG A   1      21.308  17.993   4.880  1.00 20.00    -0.051 A 
ATOM      9 C9   LIG A   1      21.363  16.924   3.992  1.00 20.00    -0.058 A 
ATOM     10 C10  LIG A   1      20.974  18.643   7.260  1.00 20.00    +0.140 C 
ATOM     11 C11  LIG A   1      22.255  18.685   7.691  1.00 20.00    +0.047 C 
ATOM     12 C12  LIG A   1      23.380  17.757   7.341  1.00 20.00    +0.256 C 
ATOM     13 O13  LIG A   1      24.533  18.147   7.523  1.00 20.00    -0.269 OA
ATOM     14 N14  LIG A   1      23.017  16.418   7.248  1.00 20.00    -0.278 NA
ATOM     15 C15  LIG A   1      23.026  15.666   8.513  1.00 20.00    +0.029 C 
ATOM     16 C16  LIG A   1      22.315  16.316   9.726  1.00 20.00    -0.034 C 
ATOM     17 C17  LIG A   1      20.790  16.302   9.581  1.00 20.00    -0.034 C 
ATOM     18 C18  LIG A   1      20.010  17.269  10.494  1.00 20.00    +0.085 C 
ATOM     19 C19  LIG A   1      18.525  16.970  10.335  1.00 20.00    +0.311 C 
ATOM     20 O20  LIG A   1      17.790  17.291   9.416  1.00 20.00    -0.252 OA
ATOM     21 O21  LIG A   1      18.040  16.216  11.347  1.00 20.00    -0.481 OA
ATOM     22 C22  LIG A   1      20.267  18.772  10.412  1.00 20.00    +0.009 A 
ATOM     23 C23  LIG A   1      20.588  19.423  11.620  1.00 20.00    -0.052 A 
ATOM     24 C24  LIG A   1      20.750  20.816  11.695  1.00 20.00    -0.038 A 
ATOM     25 C25  LIG A   1      20.556  21.630  10.582  1.00 20.00    +0.038 A 
ATOM     26 N26  LIG A   1      20.755  23.008  10.579  1.00 20.00    -0.385 NA
ATOM     27 C27  LIG A   1      20.751  23.802  11.804  1.00 20.00    +0.016 C 
ATOM     28 C28  LIG A   1      19.333  23.983  12.348  1.00 20.00    -0.023 C 
ATOM     29 C29  LIG A   1      19.344  24.848  13.610  1.00 20.00    -0.003 C 
ATOM     30 N30  LIG A   1      17.974  25.050  14.083  1.00 20.00    -0.317 NA
ATOM     31 C31  LIG A   1      17.915  25.837  15.317  1.00 20.00    -0.005 C 
ATOM     32 C32  LIG A   1      17.277  27.209  15.080  1.00 20.00    -0.039 C 
ATOM     33 C33  LIG A   1      18.081  28.167  14.193  1.00 20.00    -0.040 C 
ATOM     34 C34  LIG A   1      19.462  28.553  14.730  1.00 20.00    -0.008 C 
ATOM     35 N35  LIG A   1      19.403  29.277  15.994  1.00 20.00    -0.330 NA
ATOM     36 C36  LIG A   1      20.277  20.991   9.370  1.00 20.00    +0.004 A 
ATOM     37 C37  LIG A   1      20.144  19.594   9.276  1.00 20.00    +0.133 A 
ATOM     38 O38  LIG A   1      19.892  19.123   8.004  1.00 20.00    -0.456 OA
ATOM     39 C39  LIG A   1      23.395  15.795   6.050  1.00 20.00    +0.246 C 
ATOM     40 O40  LIG A   1      24.061  16.379   5.188  1.00 20.00    -0.273 OA
ATOM     41 C41  LIG A   1      22.927  14.308   5.802  1.00 20.00    +0.088 C 
ATOM     42 N42  LIG A   1      24.009  13.427   6.300  1.00 20.00    -0.320 NA
ATOM     43 O43  LIG A   1      21.877  16.549   8.485  1.00 20.00    -0.251 OA
ATOM     44 C44  LIG A   1      21.039  17.326   8.913  1.00 20.00    +0.317 C 
ATOM     45 O45  LIG A   1      20.094  16.899   9.782  1.00 20.00    -0.480 OA
ATOM     46 C46  LIG A   1      20.866  18.782   8.498  1.00 20.00    +0.094 C 
ATOM     47 N47  LIG A   1      20.364  19.590   9.627  1.00 20.00    -0.306 NA
ATOM     48 C48  LIG A   1      19.966  20.930   9.180  1.00 20.00    +0.005 C 
ATOM     49 C49  LIG A   1      19.477  21.804  10.342  1.00 20.00    +0.003 C 
ATOM     50 S50  LIG A   1      20.789  22.111  11.566  1.00 20.00    -0.178 SA
ATOM     51 H51  LIG A   1      23.907  12.267   3.963  1.00 20.00    +0.023 H 
ATOM     52 H52  LIG A   1      22.591  12.410   2.806  1.00 20.00    +0.023 H 
ATOM     53 H53  LIG A   1      22.243  11.890   4.463  1.00 20.00    +0.023 H 
ATOM     54 H54  LIG A   1      23.356  14.622   3.674  1.00 20.00    +0.032 H 
ATOM     55 H55  LIG A   1      20.501  13.630   4.047  1.00 20.00    +0.032 H 
ATOM     56 H56  LIG A   1      21.195  14.474   2.679  1.00 20.00    +0.032 H 
ATOM     57 H57  LIG A   1      19.149  14.850   5.542  1.00 20.00    +0.063 H 
ATOM     58 H58  LIG A   1      18.974  16.776   7.036  1.00 20.00    +0.063 H 
ATOM     59 H59  LIG A   1      21.982  18.834   4.724  1.00 20.00    +0.063 H 
ATOM     60 H60  LIG A   1      22.079  16.957   3.173  1.00 20.00    +0.063 H 
ATOM     61 H61  LIG A   1      22.547  19.321   8.522  1.00 20.00    +0.072 H 
ATOM     62 H62  LIG A   1      24.081  15.518   8.776  1.00 20.00    +0.050 H 
ATOM     63 H63  LIG A   1      22.595  14.673   8.360  1.00 20.00    +0.050 H 
ATOM     64 H64  LIG A   1      22.698  17.324   9.908  1.00 20.00    +0.029 H 
ATOM     65 H65  LIG A   1      22.573  15.739  10.622  1.00 20.00    +0.029 H 
ATOM     66 H66  LIG A   1      20.511  16.462   8.549  1.00 20.00    +0.028 H 
ATOM     67 H67  LIG A   1      20.451  15.277   9.790  1.00 20.00    +0.028 H 
ATOM     68 H68  LIG A   1      20.270  16.959  11.517  1.00 20.00    +0.047 H 
ATOM     69 H69  LIG A   1      17.090  16.114  11.124  1.00 20.00    +0.296 HD
ATOM     70 H70  LIG A   1      20.712  18.852  12.538  1.00 20.00    +0.063 H 
ATOM     71 H71  LIG A   1      21.018  21.238  12.658  1.00 20.00    +0.064 H 
ATOM     72 H72  LIG A   1      20.275  23.469   9.809  1.00 20.00    +0.160 HD
ATOM     73 H73  LIG A   1      21.163  24.787  11.556  1.00 20.00    +0.049 H 
ATOM     74 H74  LIG A   1      21.423  23.379  12.558  1.00 20.00    +0.049 H 
ATOM     75 H75  LIG A   1      18.886  23.007  12.572  1.00 20.00    +0.030 H 
ATOM     76 H76  LIG A   1      18.704  24.448  11.579  1.00 20.00    +0.030 H 
ATOM     77 H77  LIG A   1      19.945  24.353  14.384  1.00 20.00    +0.043 H 
ATOM     78 H78  LIG A   1      19.810  25.811  13.380  1.00 20.00    +0.043 H 
ATOM     79 H79  LIG A   1      17.542  24.139  14.246  1.00 20.00    +0.122 HD
ATOM     80 H80  LIG A   1      18.889  25.928  15.809  1.00 20.00    +0.043 H 
ATOM     81 H81  LIG A   1      17.276  25.295  16.026  1.00 20.00    +0.043 H 
ATOM     82 H82  LIG A   1      17.086  27.679  16.053  1.00 20.00    +0.028 H 
ATOM     83 H83  LIG A   1      16.289  27.068  14.622  1.00 20.00    +0.028 H 
ATOM     84 H84  LIG A   1      17.489  29.081  14.049  1.00 20.00    +0.028 H 
ATOM     85 H85  LIG A   1      18.200  27.728  13.196  1.00 20.00    +0.028 H 
ATOM     86 H86  LIG A   1      19.960  29.193  13.992  1.00 20.00    +0.043 H 
ATOM     87 H87  LIG A   1      20.097  27.671  14.853  1.00 20.00    +0.043 H 
ATOM     88 H88  LIG A   1      18.969  28.698  16.710  1.00 20.00    +0.118 HD
ATOM     89 H89  LIG A   1      18.802  30.094  15.890  1.00 20.00    +0.118 HD
ATOM     90 H90  LIG A   1      20.172  21.582   8.463  1.00 20.00    +0.068 H 
ATOM     91 H91  LIG A   1      22.015  14.106   6.374  1.00 20.00    +0.057 H 
ATOM     92 H92  LIG A   1      24.316  13.691   7.233  1.00 20.00    +0.119 HD
ATOM     93 H93  LIG A   1      23.686  12.465   6.347  1.00 20.00    +0.119 HD
ATOM     94 H94  LIG A   1      20.341  15.965   9.946  1.00 20.00    +0.296 HD
ATOM     95 H95  LIG A   1      21.841  19.164   8.182  1.00 20.00    +0.055 H 
ATOM     96 H96  LIG A   1      20.169  18.797   7.653  1.00 20.00    +0.055 H 
ATOM     97 H97  LIG A   1      19.566  19.097  10.036  1.00 20.00    +0.123 HD
ATOM     98 H98  LIG A   1      20.805  21.425   8.677  1.00 20.00    +0.044 H 
ATOM     99 H99  LIG A   1      19.151  20.844   8.450  1.00 20.00    +0.044 H 
ATOM    100 H100 LIG A   1      19.129  22.770   9.963  1.00 20.00    +0.039 H 
ATOM    101 H101 LIG A   1      18.635  21.324  10.853  1.00 20.00    +0.039 H 
ATOM    102 H102 LIG A   1      21.209  20.836  11.619  1.00 20.00    +0.102 HD
ENDROOT
TORSDOF 0
                                                                                                         
ENDMDL
MODEL 9
REMARK VINA RESULT:   -10.181      3.206     10.229
REMARK INTER + INTRA:         -10.181
REMARK INTER:                 -10.181
REMARK INTRA:                   0.000
REMARK UNBOUND:                 0.000
ROOT
ATOM      1 C1   LIG A   1      21.865  30.291  16.303  1.00 20.00    -0.060 C 
ATOM      2 C2   LIG A   1      21.148  29.338  15.328  1.00 20.00    -0.016 C 
ATOM      3 C3   LIG A   1      21.388  29.910  13.888  1.00 20.00    -0.023 C 
ATOM      4 C4   LIG A   1      20.999  28.968  12.784  1.00 20.00    -0.048 A 
ATOM      5 C5   LIG A   1      21.993  28.304  12.061  1.00 20.00    -0.058 A 
ATOM      6 C6   LIG A   1      21.694  27.099  11.439  1.00 20.00    -0.051 A 
ATOM      7 C7   LIG A   1      20.423  26.543  11.607  1.00 20.00    +0.017 A 
ATOM      8 C8   LIG A   1      19.374  27.361  12.044  1.00 20.00    -0.051 A 
ATOM      9 C9   LIG A   1      19.663  28.591  12.625  1.00 20.00    -0.058 A 
ATOM     10 C10  LIG A   1      20.249  25.076  11.583  1.00 20.00    +0.140 C 
ATOM     11 C11  LIG A   1      19.758  24.400  12.645  1.00 20.00    +0.047 C 
ATOM     12 C12  LIG A   1      19.647  24.864  14.067  1.00 20.00    +0.256 C 
ATOM     13 O13  LIG A   1      18.858  24.280  14.809  1.00 20.00    -0.269 OA
ATOM     14 N14  LIG A   1      20.729  25.612  14.516  1.00 20.00    -0.278 NA
ATOM     15 C15  LIG A   1      21.865  24.839  15.043  1.00 20.00    +0.029 C 
ATOM     16 C16  LIG A   1      22.371  23.654  14.183  1.00 20.00    -0.034 C 
ATOM     17 C17  LIG A   1      23.110  24.122  12.926  1.00 20.00    -0.034 C 
ATOM     18 C18  LIG A   1      23.285  23.075  11.809  1.00 20.00    +0.085 C 
ATOM     19 C19  LIG A   1      24.197  23.672  10.744  1.00 20.00    +0.311 C 
ATOM     20 O20  LIG A   1      23.910  24.494   9.889  1.00 20.00    -0.252 OA
ATOM     21 O21  LIG A   1      25.469  23.229  10.846  1.00 20.00    -0.481 OA
ATOM     22 C22  LIG A   1      22.059  22.431  11.166  1.00 20.00    +0.009 A 
ATOM     23 C23  LIG A   1      22.021  21.022  11.154  1.00 20.00    -0.052 A 
ATOM     24 C24  LIG A   1      20.998  20.310  10.509  1.00 20.00    -0.038 A 
ATOM     25 C25  LIG A   1      19.990  20.964   9.805  1.00 20.00    +0.038 A 
ATOM     26 N26  LIG A   1      18.920  20.319   9.192  1.00 20.00    -0.385 NA
ATOM     27 C27  LIG A   1      18.961  18.905   8.834  1.00 20.00    +0.016 C 
ATOM     28 C28  LIG A   1      19.841  18.664   7.606  1.00 20.00    -0.023 C 
ATOM     29 C29  LIG A   1      19.843  17.183   7.223  1.00 20.00    -0.003 C 
ATOM     30 N30  LIG A   1      20.649  16.985   6.018  1.00 20.00    -0.317 NA
ATOM     31 C31  LIG A   1      20.728  15.578   5.619  1.00 20.00    -0.005 C 
ATOM     32 C32  LIG A   1      19.987  15.323   4.303  1.00 20.00    -0.039 C 
ATOM     33 C33  LIG A   1      18.465  15.498   4.357  1.00 20.00    -0.040 C 
ATOM     34 C34  LIG A   1      17.731  14.556   5.316  1.00 20.00    -0.008 C 
ATOM     35 N35  LIG A   1      17.869  13.150   4.955  1.00 20.00    -0.330 NA
ATOM     36 C36  LIG A   1      19.995  22.362   9.845  1.00 20.00    +0.004 A 
ATOM     37 C37  LIG A   1      20.997  23.086  10.516  1.00 20.00    +0.133 A 
ATOM     38 O38  LIG A   1      20.842  24.457  10.478  1.00 20.00    -0.456 OA
ATOM     39 C39  LIG A   1      20.386  26.846  15.088  1.00 20.00    +0.246 C 
ATOM     40 O40  LIG A   1      19.210  27.193  15.241  1.00 20.00    -0.273 OA
ATOM     41 C41  LIG A   1      21.552  27.817  15.523  1.00 20.00    +0.088 C 
ATOM     42 N42  LIG A   1      21.842  27.531  16.947  1.00 20.00    -0.320 NA
ATOM     43 O43  LIG A   1      21.836  24.729  13.598  1.00 20.00    -0.251 OA
ATOM     44 C44  LIG A   1      21.939  24.200  12.503  1.00 20.00    +0.317 C 
ATOM     45 O45  LIG A   1      23.155  23.839  12.032  1.00 20.00    -0.480 OA
ATOM     46 C46  LIG A   1      20.809  23.961  11.508  1.00 20.00    +0.094 C 
ATOM     47 N47  LIG A   1      21.055  22.734  10.726  1.00 20.00    -0.306 NA
ATOM     48 C48  LIG A   1      20.109  22.624   9.609  1.00 20.00    +0.005 C 
ATOM     49 C49  LIG A   1      20.317  21.335   8.802  1.00 20.00    +0.003 C 
ATOM     50 S50  LIG A   1      20.009  19.845   9.800  1.00 20.00    -0.178 SA
ATOM     51 H51  LIG A   1      21.574  30.098  17.340  1.00 20.00    +0.023 H 
ATOM     52 H52  LIG A   1      21.602  31.334  16.090  1.00 20.00    +0.023 H 
ATOM     53 H53  LIG A   1      22.953  30.195  16.222  1.00 20.00    +0.023 H 
ATOM     54 H54  LIG A   1      20.075  29.438  15.538  1.00 20.00    +0.032 H 
ATOM     55 H55  LIG A   1      22.447  30.179  13.777  1.00 20.00    +0.032 H 
ATOM     56 H56  LIG A   1      20.828  30.848  13.769  1.00 20.00    +0.032 H 
ATOM     57 H57  LIG A   1      23.027  28.640  12.090  1.00 20.00    +0.063 H 
ATOM     58 H58  LIG A   1      22.495  26.533  10.973  1.00 20.00    +0.063 H 
ATOM     59 H59  LIG A   1      18.356  26.980  12.112  1.00 20.00    +0.063 H 
ATOM     60 H60  LIG A   1      18.867  29.133  13.133  1.00 20.00    +0.063 H 
ATOM     61 H61  LIG A   1      19.563  23.333  12.589  1.00 20.00    +0.072 H 
ATOM     62 H62  LIG A   1      21.543  24.441  16.014  1.00 20.00    +0.050 H 
ATOM     63 H63  LIG A   1      22.711  25.502  15.237  1.00 20.00    +0.050 H 
ATOM     64 H64  LIG A   1      21.554  22.968  13.944  1.00 20.00    +0.029 H 
ATOM     65 H65  LIG A   1      23.075  23.068  14.789  1.00 20.00    +0.029 H 
ATOM     66 H66  LIG A   1      22.645  25.013  12.529  1.00 20.00    +0.028 H 
ATOM     67 H67  LIG A   1      24.107  24.464  13.241  1.00 20.00    +0.028 H 
ATOM     68 H68  LIG A   1      23.862  22.263  12.274  1.00 20.00    +0.047 H 
ATOM     69 H69  LIG A   1      25.930  23.677  10.105  1.00 20.00    +0.296 HD
ATOM     70 H70  LIG A   1      22.802  20.445  11.647  1.00 20.00    +0.063 H 
ATOM     71 H71  LIG A   1      21.029  19.226  10.563  1.00 20.00    +0.064 H 
ATOM     72 H72  LIG A   1      18.476  20.894   8.479  1.00 20.00    +0.160 HD
ATOM     73 H73  LIG A   1      17.935  18.597   8.598  1.00 20.00    +0.049 H 
ATOM     74 H74  LIG A   1      19.271  18.284   9.681  1.00 20.00    +0.049 H 
ATOM     75 H75  LIG A   1      20.868  18.995   7.806  1.00 20.00    +0.030 H 
ATOM     76 H76  LIG A   1      19.473  19.269   6.768  1.00 20.00    +0.030 H 
ATOM     77 H77  LIG A   1      20.250  16.594   8.054  1.00 20.00    +0.043 H 
ATOM     78 H78  LIG A   1      18.813  16.859   7.046  1.00 20.00    +0.043 H 
ATOM     79 H79  LIG A   1      21.592  17.338   6.189  1.00 20.00    +0.122 HD
ATOM     80 H80  LIG A   1      20.393  14.894   6.406  1.00 20.00    +0.043 H 
ATOM     81 H81  LIG A   1      21.787  15.339   5.453  1.00 20.00    +0.043 H 
ATOM     82 H82  LIG A   1      20.230  14.312   3.954  1.00 20.00    +0.028 H 
ATOM     83 H83  LIG A   1      20.382  16.002   3.535  1.00 20.00    +0.028 H 
ATOM     84 H84  LIG A   1      18.067  15.353   3.344  1.00 20.00    +0.028 H 
ATOM     85 H85  LIG A   1      18.226  16.533   4.627  1.00 20.00    +0.028 H 
ATOM     86 H86  LIG A   1      16.665  14.809   5.309  1.00 20.00    +0.043 H 
ATOM     87 H87  LIG A   1      18.075  14.695   6.345  1.00 20.00    +0.043 H 
ATOM     88 H88  LIG A   1      18.850  12.877   4.978  1.00 20.00    +0.118 HD
ATOM     89 H89  LIG A   1      17.562  13.016   3.992  1.00 20.00    +0.118 HD
ATOM     90 H90  LIG A   1      19.196  22.917   9.357  1.00 20.00    +0.068 H 
ATOM     91 H91  LIG A   1      22.448  27.609  14.930  1.00 20.00    +0.057 H 
ATOM     92 H92  LIG A   1      21.950  26.535  17.121  1.00 20.00    +0.119 HD
ATOM     93 H93  LIG A   1      22.708  27.984  17.227  1.00 20.00    +0.119 HD
ATOM     94 H94  LIG A   1      23.759  24.051  12.774  1.00 20.00    +0.296 HD
ATOM     95 H95  LIG A   1      19.877  23.854  12.072  1.00 20.00    +0.055 H 
ATOM     96 H96  LIG A   1      20.754  24.844  10.863  1.00 20.00    +0.055 H 
ATOM     97 H97  LIG A   1      22.017  22.770  10.378  1.00 20.00    +0.123 HD
ATOM     98 H98  LIG A   1      19.078  22.659   9.982  1.00 20.00    +0.044 H 
ATOM     99 H99  LIG A   1      20.242  23.477   8.932  1.00 20.00    +0.044 H 
ATOM    100 H100 LIG A   1      19.640  21.319   7.942  1.00 20.00    +0.039 H 
ATOM    101 H101 LIG A   1      21.342  21.287   8.418  1.00 20.00    +0.039 H 
ATOM    102 H102 LIG A   1      20.706  20.266  10.868  1.00 20.00    +0.102 HD
ENDROOT
TORSDOF 0
                                                                                                         
ENDMDL
