ROOT
ATOM      1 C1   LIG A   1       4.217  -0.937  -1.480  1.00 20.00    -0.060 C 
ATOM      2 C2   LIG A   1       3.227   0.144  -1.002  1.00 20.00    -0.016 C 
ATOM      3 C3   LIG A   1       2.299   0.549  -2.194  1.00 20.00    -0.023 C 
ATOM      4 C4   LIG A   1       0.947  -0.111  -2.183  1.00 20.00    -0.047 A 
ATOM      5 C5   LIG A   1       0.798  -1.465  -2.457  1.00 20.00    -0.059 A 
ATOM      6 C6   LIG A   1      -0.347  -2.124  -2.025  1.00 20.00    -0.057 A 
ATOM      7 C7   LIG A   1      -1.325  -1.445  -1.265  1.00 20.00    -0.023 A 
ATOM      8 C8   LIG A   1      -1.266  -0.037  -1.183  1.00 20.00    +0.027 A 
ATOM      9 C9   LIG A   1      -0.145   0.618  -1.702  1.00 20.00    -0.048 A 
ATOM     10 C10  LIG A   1      -2.261   0.786  -0.430  1.00 20.00    +0.194 C 
ATOM     11 O11  LIG A   1      -3.425   0.432  -0.294  1.00 20.00    -0.289 OA
ATOM     12 C12  LIG A   1      -1.871   2.085   0.153  1.00 20.00    +0.035 A 
ATOM     13 C13  LIG A   1      -2.371   3.241  -0.461  1.00 20.00    -0.050 A 
ATOM     14 C14  LIG A   1      -2.060   4.497   0.061  1.00 20.00    -0.061 A 
ATOM     15 C15  LIG A   1      -1.273   4.602   1.209  1.00 20.00    -0.061 A 
ATOM     16 C16  LIG A   1      -0.797   3.451   1.840  1.00 20.00    -0.049 A 
ATOM     17 C17  LIG A   1      -1.077   2.187   1.301  1.00 20.00    +0.051 A 
ATOM     18 C18  LIG A   1      -0.660   1.001   2.075  1.00 20.00    +0.261 C 
ATOM     19 O19  LIG A   1      -1.248   0.822   3.142  1.00 20.00    -0.269 OA
ATOM     20 N20  LIG A   1       0.363   0.157   1.597  1.00 20.00    -0.277 NA
ATOM     21 C21  LIG A   1       0.372  -1.180   2.226  1.00 20.00    +0.029 C 
ATOM     22 C22  LIG A   1      -0.338  -2.298   1.439  1.00 20.00    -0.034 C 
ATOM     23 C23  LIG A   1      -1.840  -2.088   1.129  1.00 20.00    -0.034 C 
ATOM     24 C24  LIG A   1      -2.206  -2.316  -0.367  1.00 20.00    +0.082 C 
ATOM     25 C25  LIG A   1      -3.685  -2.236  -0.709  1.00 20.00    +0.310 C 
ATOM     26 O26  LIG A   1      -4.158  -2.129  -1.832  1.00 20.00    -0.252 OA
ATOM     27 O27  LIG A   1      -4.502  -2.407   0.349  1.00 20.00    -0.481 OA
ATOM     28 C28  LIG A   1       1.451   0.674   0.868  1.00 20.00    +0.246 C 
ATOM     29 O29  LIG A   1       1.602   1.884   0.668  1.00 20.00    -0.273 OA
ATOM     30 C30  LIG A   1       2.543  -0.306   0.344  1.00 20.00    +0.088 C 
ATOM     31 N31  LIG A   1       3.608  -0.392   1.380  1.00 20.00    -0.320 NA
ATOM     32 O32  LIG A   1       3.481   0.749  -0.486  1.00 20.00    -0.251 OA
ATOM     33 C33  LIG A   1       2.390   0.769   0.062  1.00 20.00    +0.317 C 
ATOM     34 O34  LIG A   1       1.997   1.862   0.756  1.00 20.00    -0.480 OA
ATOM     35 C35  LIG A   1       1.399  -0.385   0.135  1.00 20.00    +0.094 C 
ATOM     36 N36  LIG A   1       0.012   0.119   0.170  1.00 20.00    -0.306 NA
ATOM     37 C37  LIG A   1      -0.932  -0.959   0.484  1.00 20.00    +0.005 C 
ATOM     38 C38  LIG A   1      -2.386  -0.466   0.500  1.00 20.00    +0.003 C 
ATOM     39 S39  LIG A   1      -2.922   0.140  -1.130  1.00 20.00    -0.178 SA
ATOM     40 H40  LIG A   1       5.003  -1.116  -0.739  1.00 20.00    +0.023 H 
ATOM     41 H41  LIG A   1       4.717  -0.628  -2.404  1.00 20.00    +0.023 H 
ATOM     42 H42  LIG A   1       3.710  -1.888  -1.668  1.00 20.00    +0.023 H 
ATOM     43 H43  LIG A   1       3.835   1.038  -0.795  1.00 20.00    +0.032 H 
ATOM     44 H44  LIG A   1       2.165   1.639  -2.163  1.00 20.00    +0.032 H 
ATOM     45 H45  LIG A   1       2.785   0.356  -3.159  1.00 20.00    +0.032 H 
ATOM     46 H46  LIG A   1       1.608  -2.038  -2.903  1.00 20.00    +0.063 H 
ATOM     47 H47  LIG A   1      -0.399  -3.205  -2.153  1.00 20.00    +0.063 H 
ATOM     48 H48  LIG A   1      -0.033   1.697  -1.598  1.00 20.00    +0.063 H 
ATOM     49 H49  LIG A   1      -3.011   3.163  -1.338  1.00 20.00    +0.063 H 
ATOM     50 H50  LIG A   1      -2.447   5.395  -0.416  1.00 20.00    +0.062 H 
ATOM     51 H51  LIG A   1      -1.046   5.581   1.625  1.00 20.00    +0.062 H 
ATOM     52 H52  LIG A   1      -0.213   3.538   2.753  1.00 20.00    +0.063 H 
ATOM     53 H53  LIG A   1       1.402  -1.495   2.403  1.00 20.00    +0.050 H 
ATOM     54 H54  LIG A   1      -0.081  -1.130   3.222  1.00 20.00    +0.050 H 
ATOM     55 H55  LIG A   1      -0.255  -3.214   2.041  1.00 20.00    +0.029 H 
ATOM     56 H56  LIG A   1       0.238  -2.514   0.538  1.00 20.00    +0.029 H 
ATOM     57 H57  LIG A   1      -2.186  -1.111   1.470  1.00 20.00    +0.028 H 
ATOM     58 H58  LIG A   1      -2.406  -2.808   1.735  1.00 20.00    +0.028 H 
ATOM     59 H59  LIG A   1      -1.966  -3.371  -0.568  1.00 20.00    +0.047 H 
ATOM     60 H60  LIG A   1      -5.389  -2.225  -0.025  1.00 20.00    +0.296 HD
ATOM     61 H61  LIG A   1       2.114  -1.300   0.205  1.00 20.00    +0.057 H 
ATOM     62 H62  LIG A   1       3.208  -0.539   2.304  1.00 20.00    +0.119 HD
ATOM     63 H63  LIG A   1       4.074   0.517   1.436  1.00 20.00    +0.119 HD
ATOM     64 H64  LIG A   1       2.727   2.500   0.611  1.00 20.00    +0.296 HD
ATOM     65 H65  LIG A   1       1.538  -1.010  -0.752  1.00 20.00    +0.055 H 
ATOM     66 H66  LIG A   1       1.638  -0.960   1.036  1.00 20.00    +0.055 H 
ATOM     67 H67  LIG A   1      -0.037   0.856   0.878  1.00 20.00    +0.123 HD
ATOM     68 H68  LIG A   1      -0.831  -1.774  -0.242  1.00 20.00    +0.044 H 
ATOM     69 H69  LIG A   1      -0.701  -1.371   1.474  1.00 20.00    +0.044 H 
ATOM     70 H70  LIG A   1      -3.053  -1.280   0.799  1.00 20.00    +0.039 H 
ATOM     71 H71  LIG A   1      -2.505   0.345   1.227  1.00 20.00    +0.039 H 
ATOM     72 H72  LIG A   1      -1.814   0.864  -1.363  1.00 20.00    +0.102 HD
ENDROOT
TORSDOF 0
