MODEL 1
REMARK VINA RESULT:   -10.868      0.000      0.000
REMARK INTER + INTRA:         -10.868
REMARK INTER:                 -10.868
REMARK INTRA:                   0.000
REMARK UNBOUND:                 0.000
ROOT
ATOM      1 C1   LIG A   1      18.140  11.411   4.699  1.00 20.00    -0.060 C 
ATOM      2 C2   LIG A   1      18.353  12.951   4.740  1.00 20.00    -0.016 C 
ATOM      3 C3   LIG A   1      17.174  13.466   5.615  1.00 20.00    -0.023 C 
ATOM      4 C4   LIG A   1      17.480  14.918   5.848  1.00 20.00    -0.048 A 
ATOM      5 C5   LIG A   1      17.696  15.290   7.141  1.00 20.00    -0.058 A 
ATOM      6 C6   LIG A   1      18.402  16.484   7.302  1.00 20.00    -0.051 A 
ATOM      7 C7   LIG A   1      18.807  17.146   6.244  1.00 20.00    +0.017 A 
ATOM      8 C8   LIG A   1      18.543  16.743   4.894  1.00 20.00    -0.051 A 
ATOM      9 C9   LIG A   1      17.853  15.586   4.718  1.00 20.00    -0.058 A 
ATOM     10 C10  LIG A   1      19.838  18.226   6.138  1.00 20.00    +0.140 C 
ATOM     11 C11  LIG A   1      20.944  18.008   5.400  1.00 20.00    +0.047 C 
ATOM     12 C12  LIG A   1      21.364  16.786   4.731  1.00 20.00    +0.256 C 
ATOM     13 O13  LIG A   1      22.034  16.662   3.695  1.00 20.00    -0.269 OA
ATOM     14 N14  LIG A   1      21.125  15.423   5.272  1.00 20.00    -0.278 NA
ATOM     15 C15  LIG A   1      22.000  15.139   6.384  1.00 20.00    +0.029 C 
ATOM     16 C16  LIG A   1      22.128  15.935   7.563  1.00 20.00    -0.034 C 
ATOM     17 C17  LIG A   1      21.156  16.223   8.599  1.00 20.00    -0.034 C 
ATOM     18 C18  LIG A   1      21.123  17.459   9.331  1.00 20.00    +0.085 C 
ATOM     19 C19  LIG A   1      20.161  17.136  10.533  1.00 20.00    +0.311 C 
ATOM     20 O20  LIG A   1      19.397  18.053  10.922  1.00 20.00    -0.252 OA
ATOM     21 O21  LIG A   1      20.204  15.885  11.089  1.00 20.00    -0.481 OA
ATOM     22 C22  LIG A   1      20.795  18.837   9.040  1.00 20.00    +0.009 A 
ATOM     23 C23  LIG A   1      21.242  19.632  10.192  1.00 20.00    -0.052 A 
ATOM     24 C24  LIG A   1      21.119  20.953  10.344  1.00 20.00    -0.038 A 
ATOM     25 C25  LIG A   1      20.526  21.677   9.359  1.00 20.00    +0.038 A 
ATOM     26 N26  LIG A   1      20.362  23.048   9.498  1.00 20.00    -0.385 NA
ATOM     27 C27  LIG A   1      20.684  23.807  10.674  1.00 20.00    +0.016 C 
ATOM     28 C28  LIG A   1      19.620  23.525  11.696  1.00 20.00    -0.023 C 
ATOM     29 C29  LIG A   1      19.840  24.323  12.990  1.00 20.00    -0.003 C 
ATOM     30 N30  LIG A   1      18.790  24.001  13.876  1.00 20.00    -0.317 NA
ATOM     31 C31  LIG A   1      18.775  24.662  15.105  1.00 20.00    -0.005 C 
ATOM     32 C32  LIG A   1      18.366  26.072  15.107  1.00 20.00    -0.039 C 
ATOM     33 C33  LIG A   1      19.100  27.107  14.364  1.00 20.00    -0.040 C 
ATOM     34 C34  LIG A   1      20.551  27.280  14.726  1.00 20.00    -0.008 C 
ATOM     35 N35  LIG A   1      20.727  27.648  16.105  1.00 20.00    -0.330 NA
ATOM     36 C36  LIG A   1      20.088  21.021   8.270  1.00 20.00    +0.004 A 
ATOM     37 C37  LIG A   1      20.216  19.601   8.098  1.00 20.00    +0.133 A 
ATOM     38 O38  LIG A   1      19.620  19.340   6.828  1.00 20.00    -0.456 OA
ATOM     39 C39  LIG A   1      20.352  14.399   4.758  1.00 20.00    +0.246 C 
ATOM     40 O40  LIG A   1      20.203  14.638   3.496  1.00 20.00    -0.273 OA
ATOM     41 C41  LIG A   1      19.741  13.176   5.247  1.00 20.00    +0.088 C 
ATOM     42 N42  LIG A   1      20.569  11.999   4.917  1.00 20.00    -0.320 NA
ATOM     43 C43  LIG A   1      20.008  20.335  10.414  1.00 20.00    +0.000 C 
ATOM     44 C44  LIG A   1      19.237  19.993   9.159  1.00 20.00    +0.000 C 
ATOM     45 Se45 LIG A   1      18.886  18.088   9.062  1.00 20.00    +0.000 Se
ATOM     46 C46  LIG A   1      20.143  17.153   7.948  1.00 20.00    +0.000 C 
ATOM     47 H47  LIG A   1      19.031  11.020   4.171  1.00 20.00    +0.023 H 
ATOM     48 H48  LIG A   1      17.279  11.239   4.039  1.00 20.00    +0.023 H 
ATOM     49 H49  LIG A   1      18.083  10.982   5.697  1.00 20.00    +0.023 H 
ATOM     50 H50  LIG A   1      18.131  13.299   3.727  1.00 20.00    +0.032 H 
ATOM     51 H51  LIG A   1      17.153  12.932   6.551  1.00 20.00    +0.032 H 
ATOM     52 H52  LIG A   1      16.226  13.305   5.076  1.00 20.00    +0.032 H 
ATOM     53 H53  LIG A   1      17.349  14.706   7.977  1.00 20.00    +0.063 H 
ATOM     54 H54  LIG A   1      18.505  16.837   8.292  1.00 20.00    +0.063 H 
ATOM     55 H55  LIG A   1      18.853  17.299   4.044  1.00 20.00    +0.063 H 
ATOM     56 H56  LIG A   1      17.616  15.259   3.717  1.00 20.00    +0.063 H 
ATOM     57 H57  LIG A   1      21.592  18.876   5.280  1.00 20.00    +0.072 H 
ATOM     58 H58  LIG A   1      23.029  14.970   5.922  1.00 20.00    +0.050 H 
ATOM     59 H59  LIG A   1      21.708  14.073   6.790  1.00 20.00    +0.050 H 
ATOM     60 H60  LIG A   1      22.679  16.937   7.284  1.00 20.00    +0.029 H 
ATOM     61 H61  LIG A   1      23.026  15.414   8.099  1.00 20.00    +0.029 H 
ATOM     62 H62  LIG A   1      20.244  15.569   8.579  1.00 20.00    +0.028 H 
ATOM     63 H63  LIG A   1      21.629  15.502   9.521  1.00 20.00    +0.028 H 
ATOM     64 H64  LIG A   1      22.184  17.510   9.835  1.00 20.00    +0.047 H 
ATOM     65 H65  LIG A   1      20.006  15.820  12.088  1.00 20.00    +0.296 HD
ATOM     66 H66  LIG A   1      21.717  19.089  11.024  1.00 20.00    +0.063 H 
ATOM     67 H67  LIG A   1      21.488  21.468  11.231  1.00 20.00    +0.064 H 
ATOM     68 H68  LIG A   1      19.965  23.588   8.672  1.00 20.00    +0.160 HD
ATOM     69 H69  LIG A   1      20.661  24.879  10.430  1.00 20.00    +0.049 H 
ATOM     70 H70  LIG A   1      21.703  23.573  11.058  1.00 20.00    +0.049 H 
ATOM     71 H71  LIG A   1      19.509  22.474  11.986  1.00 20.00    +0.030 H 
ATOM     72 H72  LIG A   1      18.606  23.821  11.303  1.00 20.00    +0.030 H 
ATOM     73 H73  LIG A   1      20.851  23.969  13.382  1.00 20.00    +0.043 H 
ATOM     74 H74  LIG A   1      19.967  25.357  12.681  1.00 20.00    +0.043 H 
ATOM     75 H75  LIG A   1      18.372  23.072  13.792  1.00 20.00    +0.122 HD
ATOM     76 H76  LIG A   1      19.812  24.525  15.561  1.00 20.00    +0.043 H 
ATOM     77 H77  LIG A   1      18.099  24.057  15.809  1.00 20.00    +0.043 H 
ATOM     78 H78  LIG A   1      18.281  26.398  16.193  1.00 20.00    +0.028 H 
ATOM     79 H79  LIG A   1      17.270  26.171  14.770  1.00 20.00    +0.028 H 
ATOM     80 H80  LIG A   1      18.640  28.116  14.740  1.00 20.00    +0.028 H 
ATOM     81 H81  LIG A   1      18.949  27.184  13.291  1.00 20.00    +0.028 H 
ATOM     82 H82  LIG A   1      20.917  28.150  14.111  1.00 20.00    +0.043 H 
ATOM     83 H83  LIG A   1      21.195  26.430  14.423  1.00 20.00    +0.043 H 
ATOM     84 H84  LIG A   1      21.319  26.969  16.616  1.00 20.00    +0.118 HD
ATOM     85 H85  LIG A   1      19.801  27.697  16.556  1.00 20.00    +0.118 HD
ATOM     86 H86  LIG A   1      19.612  21.613   7.485  1.00 20.00    +0.068 H 
ATOM     87 H87  LIG A   1      19.702  13.260   6.372  1.00 20.00    +0.057 H 
ATOM     88 H88  LIG A   1      21.559  12.261   4.912  1.00 20.00    +0.119 HD
ATOM     89 H89  LIG A   1      20.382  11.314   5.682  1.00 20.00    +0.119 HD
ATOM     90 H90  LIG A   1      19.507  21.100  11.039  1.00 20.00    +0.000 H 
ATOM     91 H91  LIG A   1      20.992  20.727  10.123  1.00 20.00    +0.000 H 
ATOM     92 H92  LIG A   1      20.070  19.426  11.044  1.00 20.00    +0.000 H 
ATOM     93 H93  LIG A   1      18.256  20.530   9.240  1.00 20.00    +0.000 H 
ATOM     94 H94  LIG A   1      19.779  20.301   8.234  1.00 20.00    +0.000 H 
ATOM     95 H95  LIG A   1      20.777  16.507   8.603  1.00 20.00    +0.000 H 
ATOM     96 H96  LIG A   1      20.780  17.806   7.335  1.00 20.00    +0.000 H 
ATOM     97 H97  LIG A   1      19.625  16.464   7.232  1.00 20.00    +0.000 H 
ENDROOT
TORSDOF 0
                                                                                                    
ENDMDL
MODEL 2
REMARK VINA RESULT:   -10.466      3.025     11.647
REMARK INTER + INTRA:         -10.466
REMARK INTER:                 -10.466
REMARK INTRA:                   0.000
REMARK UNBOUND:                 0.000
ROOT
ATOM      1 C1   LIG A   1      20.199  29.664  15.032  1.00 20.00    -0.060 C 
ATOM      2 C2   LIG A   1      20.202  28.109  14.982  1.00 20.00    -0.016 C 
ATOM      3 C3   LIG A   1      18.899  27.760  14.207  1.00 20.00    -0.023 C 
ATOM      4 C4   LIG A   1      18.992  26.281  13.958  1.00 20.00    -0.048 A 
ATOM      5 C5   LIG A   1      19.053  25.890  12.654  1.00 20.00    -0.058 A 
ATOM      6 C6   LIG A   1      19.579  24.614  12.443  1.00 20.00    -0.051 A 
ATOM      7 C7   LIG A   1      19.977  23.899  13.469  1.00 20.00    +0.017 A 
ATOM      8 C8   LIG A   1      19.878  24.326  14.834  1.00 20.00    -0.051 A 
ATOM      9 C9   LIG A   1      19.363  25.563  15.058  1.00 20.00    -0.058 A 
ATOM     10 C10  LIG A   1      20.862  22.693  13.498  1.00 20.00    +0.140 C 
ATOM     11 C11  LIG A   1      22.043  22.759  14.143  1.00 20.00    +0.047 C 
ATOM     12 C12  LIG A   1      22.673  23.911  14.769  1.00 20.00    +0.256 C 
ATOM     13 O13  LIG A   1      23.434  23.940  15.748  1.00 20.00    -0.269 OA
ATOM     14 N14  LIG A   1      22.573  25.297  14.243  1.00 20.00    -0.278 NA
ATOM     15 C15  LIG A   1      23.385  25.469  13.063  1.00 20.00    +0.029 C 
ATOM     16 C16  LIG A   1      23.312  24.669  11.881  1.00 20.00    -0.034 C 
ATOM     17 C17  LIG A   1      22.231  24.517  10.928  1.00 20.00    -0.034 C 
ATOM     18 C18  LIG A   1      21.976  23.300  10.207  1.00 20.00    +0.085 C 
ATOM     19 C19  LIG A   1      20.972  23.754   9.085  1.00 20.00    +0.311 C 
ATOM     20 O20  LIG A   1      20.065  22.947   8.764  1.00 20.00    -0.252 OA
ATOM     21 O21  LIG A   1      21.135  24.991   8.521  1.00 20.00    -0.481 OA
ATOM     22 C22  LIG A   1      21.494  21.976  10.531  1.00 20.00    +0.009 A 
ATOM     23 C23  LIG A   1      21.738  21.135   9.352  1.00 20.00    -0.052 A 
ATOM     24 C24  LIG A   1      21.430  19.842   9.217  1.00 20.00    -0.038 A 
ATOM     25 C25  LIG A   1      20.828  19.198  10.250  1.00 20.00    +0.038 A 
ATOM     26 N26  LIG A   1      20.474  17.861  10.133  1.00 20.00    -0.385 NA
ATOM     27 C27  LIG A   1      20.598  17.073   8.938  1.00 20.00    +0.016 C 
ATOM     28 C28  LIG A   1      19.502  17.498   8.003  1.00 20.00    -0.023 C 
ATOM     29 C29  LIG A   1      19.511  16.684   6.700  1.00 20.00    -0.003 C 
ATOM     30 N30  LIG A   1      18.445  17.147   5.899  1.00 20.00    -0.317 NA
ATOM     31 C31  LIG A   1      18.244  16.501   4.680  1.00 20.00    -0.005 C 
ATOM     32 C32  LIG A   1      17.653  15.156   4.718  1.00 20.00    -0.039 C 
ATOM     33 C33  LIG A   1      18.302  14.030   5.405  1.00 20.00    -0.040 C 
ATOM     34 C34  LIG A   1      19.684  13.669   4.929  1.00 20.00    -0.008 C 
ATOM     35 N35  LIG A   1      19.698  13.288   3.542  1.00 20.00    -0.330 NA
ATOM     36 C36  LIG A   1      20.569  19.900  11.367  1.00 20.00    +0.004 A 
ATOM     37 C37  LIG A   1      20.897  21.290  11.521  1.00 20.00    +0.133 A 
ATOM     38 O38  LIG A   1      20.445  21.621  12.834  1.00 20.00    -0.456 OA
ATOM     39 C39  LIG A   1      21.985  26.411  14.811  1.00 20.00    +0.246 C 
ATOM     40 O40  LIG A   1      21.908  26.187  16.083  1.00 20.00    -0.273 OA
ATOM     41 C41  LIG A   1      21.504  27.706  14.367  1.00 20.00    +0.088 C 
ATOM     42 N42  LIG A   1      22.503  28.763  14.623  1.00 20.00    -0.320 NA
ATOM     43 C43  LIG A   1      20.409  20.602   9.234  1.00 20.00    +0.000 C 
ATOM     44 C44  LIG A   1      19.793  21.036  10.544  1.00 20.00    +0.000 C 
ATOM     45 Se45 LIG A   1      19.705  22.971  10.659  1.00 20.00    +0.000 Se
ATOM     46 C46  LIG A   1      21.159  23.725  11.663  1.00 20.00    +0.000 C 
ATOM     47 H47  LIG A   1      21.172  29.932  15.484  1.00 20.00    +0.023 H 
ATOM     48 H48  LIG A   1      19.424  29.944  15.758  1.00 20.00    +0.023 H 
ATOM     49 H49  LIG A   1      20.118  30.102  14.039  1.00 20.00    +0.023 H 
ATOM     50 H50  LIG A   1      20.019  27.789  16.011  1.00 20.00    +0.032 H 
ATOM     51 H51  LIG A   1      18.874  28.296  13.273  1.00 20.00    +0.032 H 
ATOM     52 H52  LIG A   1      18.028  28.041  14.819  1.00 20.00    +0.032 H 
ATOM     53 H53  LIG A   1      18.720  26.519  11.845  1.00 20.00    +0.063 H 
ATOM     54 H54  LIG A   1      19.555  24.256  11.450  1.00 20.00    +0.063 H 
ATOM     55 H55  LIG A   1      20.179  23.730  15.659  1.00 20.00    +0.063 H 
ATOM     56 H56  LIG A   1      19.252  25.914  16.073  1.00 20.00    +0.063 H 
ATOM     57 H57  LIG A   1      22.579  21.812  14.216  1.00 20.00    +0.072 H 
ATOM     58 H58  LIG A   1      24.461  25.498  13.440  1.00 20.00    +0.050 H 
ATOM     59 H59  LIG A   1      23.205  26.566  12.675  1.00 20.00    +0.050 H 
ATOM     60 H60  LIG A   1      23.747  23.602  12.120  1.00 20.00    +0.029 H 
ATOM     61 H61  LIG A   1      24.226  25.070  11.272  1.00 20.00    +0.029 H 
ATOM     62 H62  LIG A   1      21.418  25.285  11.018  1.00 20.00    +0.028 H 
ATOM     63 H63  LIG A   1      22.719  25.174   9.967  1.00 20.00    +0.028 H 
ATOM     64 H64  LIG A   1      22.977  23.113   9.621  1.00 20.00    +0.047 H 
ATOM     65 H65  LIG A   1      20.868  25.087   7.540  1.00 20.00    +0.296 HD
ATOM     66 H66  LIG A   1      22.213  21.615   8.481  1.00 20.00    +0.063 H 
ATOM     67 H67  LIG A   1      21.656  19.288   8.306  1.00 20.00    +0.064 H 
ATOM     68 H68  LIG A   1      20.078  17.373  10.990  1.00 20.00    +0.160 HD
ATOM     69 H69  LIG A   1      20.454  16.012   9.189  1.00 20.00    +0.049 H 
ATOM     70 H70  LIG A   1      21.605  17.173   8.472  1.00 20.00    +0.049 H 
ATOM     71 H71  LIG A   1      19.507  18.556   7.717  1.00 20.00    +0.030 H 
ATOM     72 H72  LIG A   1      18.492  17.336   8.478  1.00 20.00    +0.030 H 
ATOM     73 H73  LIG A   1      20.524  16.905   6.227  1.00 20.00    +0.043 H 
ATOM     74 H74  LIG A   1      19.524  15.641   7.004  1.00 20.00    +0.043 H 
ATOM     75 H75  LIG A   1      18.160  18.122   6.012  1.00 20.00    +0.122 HD
ATOM     76 H76  LIG A   1      19.249  16.502   4.141  1.00 20.00    +0.043 H 
ATOM     77 H77  LIG A   1      17.599  17.192   4.029  1.00 20.00    +0.043 H 
ATOM     78 H78  LIG A   1      17.439  14.851   3.644  1.00 20.00    +0.028 H 
ATOM     79 H79  LIG A   1      16.585  15.201   5.142  1.00 20.00    +0.028 H 
ATOM     80 H80  LIG A   1      17.684  13.092   5.073  1.00 20.00    +0.028 H 
ATOM     81 H81  LIG A   1      18.229  13.968   6.488  1.00 20.00    +0.028 H 
ATOM     82 H82  LIG A   1      19.980  12.755   5.517  1.00 20.00    +0.043 H 
ATOM     83 H83  LIG A   1      20.456  14.425   5.175  1.00 20.00    +0.043 H 
ATOM     84 H84  LIG A   1      20.331  13.886   2.982  1.00 20.00    +0.118 HD
ATOM     85 H85  LIG A   1      18.741  13.364   3.167  1.00 20.00    +0.118 HD
ATOM     86 H86  LIG A   1      20.084  19.372  12.192  1.00 20.00    +0.068 H 
ATOM     87 H87  LIG A   1      21.364  27.634  13.249  1.00 20.00    +0.057 H 
ATOM     88 H88  LIG A   1      23.447  28.372  14.550  1.00 20.00    +0.119 HD
ATOM     89 H89  LIG A   1      22.347  29.470  13.871  1.00 20.00    +0.119 HD
ATOM     90 H90  LIG A   1      19.763  19.913   8.655  1.00 20.00    +0.000 H 
ATOM     91 H91  LIG A   1      21.353  20.082   9.447  1.00 20.00    +0.000 H 
ATOM     92 H92  LIG A   1      20.539  21.498   8.596  1.00 20.00    +0.000 H 
ATOM     93 H93  LIG A   1      18.746  20.633  10.545  1.00 20.00    +0.000 H 
ATOM     94 H94  LIG A   1      20.362  20.654  11.425  1.00 20.00    +0.000 H 
ATOM     95 H95  LIG A   1      21.818  24.285  10.956  1.00 20.00    +0.000 H 
ATOM     96 H96  LIG A   1      21.752  22.991  12.227  1.00 20.00    +0.000 H 
ATOM     97 H97  LIG A   1      20.796  24.473  12.414  1.00 20.00    +0.000 H 
ENDROOT
TORSDOF 0
                                                                                                    
ENDMDL
MODEL 3
REMARK VINA RESULT:   -10.230      2.830     10.672
REMARK INTER + INTRA:         -10.230
REMARK INTER:                 -10.230
REMARK INTRA:                   0.000
REMARK UNBOUND:                 0.000
ROOT
ATOM      1 C1   LIG A   1      22.870  25.194  10.836  1.00 20.00    -0.060 C 
ATOM      2 C2   LIG A   1      21.980  23.917  10.818  1.00 20.00    -0.016 C 
ATOM      3 C3   LIG A   1      21.041  24.136   9.597  1.00 20.00    -0.023 C 
ATOM      4 C4   LIG A   1      20.325  22.826   9.430  1.00 20.00    -0.048 A 
ATOM      5 C5   LIG A   1      20.549  22.160   8.263  1.00 20.00    -0.058 A 
ATOM      6 C6   LIG A   1      20.265  20.793   8.299  1.00 20.00    -0.051 A 
ATOM      7 C7   LIG A   1      19.826  20.251   9.411  1.00 20.00    +0.017 A 
ATOM      8 C8   LIG A   1      19.575  20.982  10.617  1.00 20.00    -0.051 A 
ATOM      9 C9   LIG A   1      19.840  22.315  10.599  1.00 20.00    -0.058 A 
ATOM     10 C10  LIG A   1      19.776  18.809   9.807  1.00 20.00    +0.140 C 
ATOM     11 C11  LIG A   1      20.499  18.393  10.865  1.00 20.00    +0.047 C 
ATOM     12 C12  LIG A   1      21.448  19.146  11.670  1.00 20.00    +0.256 C 
ATOM     13 O13  LIG A   1      21.730  19.003  12.869  1.00 20.00    -0.269 OA
ATOM     14 N14  LIG A   1      22.346  20.196  11.123  1.00 20.00    -0.278 NA
ATOM     15 C15  LIG A   1      23.424  19.617  10.358  1.00 20.00    +0.029 C 
ATOM     16 C16  LIG A   1      23.270  18.719   9.258  1.00 20.00    -0.034 C 
ATOM     17 C17  LIG A   1      22.669  18.938   7.958  1.00 20.00    -0.034 C 
ATOM     18 C18  LIG A   1      21.992  17.909   7.215  1.00 20.00    +0.085 C 
ATOM     19 C19  LIG A   1      21.855  18.537   5.780  1.00 20.00    +0.311 C 
ATOM     20 O20  LIG A   1      20.804  18.286   5.141  1.00 20.00    -0.252 OA
ATOM     21 O21  LIG A   1      22.874  19.318   5.306  1.00 20.00    -0.481 OA
ATOM     22 C22  LIG A   1      20.757  17.169   7.345  1.00 20.00    +0.009 A 
ATOM     23 C23  LIG A   1      20.817  16.070   6.372  1.00 20.00    -0.052 A 
ATOM     24 C24  LIG A   1      19.874  15.151   6.149  1.00 20.00    -0.038 A 
ATOM     25 C25  LIG A   1      18.724  15.199   6.870  1.00 20.00    +0.038 A 
ATOM     26 N26  LIG A   1      17.715  14.273   6.645  1.00 20.00    -0.385 NA
ATOM     27 C27  LIG A   1      17.720  13.277   5.610  1.00 20.00    +0.016 C 
ATOM     28 C28  LIG A   1      17.438  13.976   4.311  1.00 20.00    -0.023 C 
ATOM     29 C29  LIG A   1      17.376  12.994   3.132  1.00 20.00    -0.003 C 
ATOM     30 N30  LIG A   1      17.097  13.740   1.967  1.00 20.00    -0.317 NA
ATOM     31 C31  LIG A   1      16.950  13.025   0.779  1.00 20.00    -0.005 C 
ATOM     32 C32  LIG A   1      15.710  12.256   0.603  1.00 20.00    -0.039 C 
ATOM     33 C33  LIG A   1      15.325  11.165   1.509  1.00 20.00    -0.040 C 
ATOM     34 C34  LIG A   1      16.299  10.023   1.624  1.00 20.00    -0.008 C 
ATOM     35 N35  LIG A   1      16.520   9.368   0.362  1.00 20.00    -0.330 NA
ATOM     36 C36  LIG A   1      18.591  16.178   7.782  1.00 20.00    +0.004 A 
ATOM     37 C37  LIG A   1      19.600  17.171   8.029  1.00 20.00    +0.133 A 
ATOM     38 O38  LIG A   1      19.045  17.998   9.050  1.00 20.00    -0.456 OA
ATOM     39 C39  LIG A   1      22.379  21.551  11.395  1.00 20.00    +0.246 C 
ATOM     40 O40  LIG A   1      21.793  21.720  12.535  1.00 20.00    -0.273 OA
ATOM     41 C41  LIG A   1      22.912  22.749  10.774  1.00 20.00    +0.088 C 
ATOM     42 N42  LIG A   1      24.198  23.139  11.387  1.00 20.00    -0.320 NA
ATOM     43 C43  LIG A   1      19.547  16.314   5.747  1.00 20.00    +0.000 C 
ATOM     44 C44  LIG A   1      18.929  17.312   6.700  1.00 20.00    +0.000 C 
ATOM     45 Se45 LIG A   1      19.956  18.957   6.737  1.00 20.00    +0.000 Se
ATOM     46 C46  LIG A   1      21.174  19.043   8.222  1.00 20.00    +0.000 C 
ATOM     47 H47  LIG A   1      23.614  25.004  11.632  1.00 20.00    +0.023 H 
ATOM     48 H48  LIG A   1      22.225  26.009  11.192  1.00 20.00    +0.023 H 
ATOM     49 H49  LIG A   1      23.374  25.350   9.885  1.00 20.00    +0.023 H 
ATOM     50 H50  LIG A   1      21.335  24.005  11.696  1.00 20.00    +0.032 H 
ATOM     51 H51  LIG A   1      21.627  24.358   8.720  1.00 20.00    +0.032 H 
ATOM     52 H52  LIG A   1      20.361  24.976   9.810  1.00 20.00    +0.032 H 
ATOM     53 H53  LIG A   1      20.919  22.650   7.378  1.00 20.00    +0.063 H 
ATOM     54 H54  LIG A   1      20.347  20.273   7.384  1.00 20.00    +0.063 H 
ATOM     55 H55  LIG A   1      19.195  20.539  11.504  1.00 20.00    +0.063 H 
ATOM     56 H56  LIG A   1      19.646  22.905  11.481  1.00 20.00    +0.063 H 
ATOM     57 H57  LIG A   1      20.325  17.357  11.160  1.00 20.00    +0.072 H 
ATOM     58 H58  LIG A   1      24.130  19.161  11.129  1.00 20.00    +0.050 H 
ATOM     59 H59  LIG A   1      24.050  20.509   9.912  1.00 20.00    +0.050 H 
ATOM     60 H60  LIG A   1      22.899  17.680   9.667  1.00 20.00    +0.029 H 
ATOM     61 H61  LIG A   1      24.379  18.411   9.053  1.00 20.00    +0.029 H 
ATOM     62 H62  LIG A   1      22.479  20.015   7.706  1.00 20.00    +0.028 H 
ATOM     63 H63  LIG A   1      23.718  18.978   7.257  1.00 20.00    +0.028 H 
ATOM     64 H64  LIG A   1      22.816  17.083   7.076  1.00 20.00    +0.047 H 
ATOM     65 H65  LIG A   1      23.036  19.299   4.298  1.00 20.00    +0.296 HD
ATOM     66 H66  LIG A   1      21.724  15.995   5.752  1.00 20.00    +0.063 H 
ATOM     67 H67  LIG A   1      20.003  14.359   5.411  1.00 20.00    +0.064 H 
ATOM     68 H68  LIG A   1      16.865  14.296   7.284  1.00 20.00    +0.160 HD
ATOM     69 H69  LIG A   1      16.915  12.553   5.801  1.00 20.00    +0.049 H 
ATOM     70 H70  LIG A   1      18.679  12.710   5.579  1.00 20.00    +0.049 H 
ATOM     71 H71  LIG A   1      18.149  14.762   4.033  1.00 20.00    +0.030 H 
ATOM     72 H72  LIG A   1      16.439  14.496   4.351  1.00 20.00    +0.030 H 
ATOM     73 H73  LIG A   1      18.413  12.519   3.094  1.00 20.00    +0.043 H 
ATOM     74 H74  LIG A   1      16.683  12.213   3.433  1.00 20.00    +0.043 H 
ATOM     75 H75  LIG A   1      17.418  14.710   1.941  1.00 20.00    +0.122 HD
ATOM     76 H76  LIG A   1      17.873  12.362   0.681  1.00 20.00    +0.043 H 
ATOM     77 H77  LIG A   1      17.073  13.770  -0.086  1.00 20.00    +0.043 H 
ATOM     78 H78  LIG A   1      15.707  11.861  -0.463  1.00 20.00    +0.028 H 
ATOM     79 H79  LIG A   1      14.803  12.963   0.569  1.00 20.00    +0.028 H 
ATOM     80 H80  LIG A   1      14.418  10.651   0.976  1.00 20.00    +0.028 H 
ATOM     81 H81  LIG A   1      14.896  11.417   2.475  1.00 20.00    +0.028 H 
ATOM     82 H82  LIG A   1      15.804   9.267   2.297  1.00 20.00    +0.043 H 
ATOM     83 H83  LIG A   1      17.242  10.286   2.142  1.00 20.00    +0.043 H 
ATOM     84 H84  LIG A   1      17.518   9.381   0.088  1.00 20.00    +0.118 HD
ATOM     85 H85  LIG A   1      15.964   9.847  -0.361  1.00 20.00    +0.118 HD
ATOM     86 H86  LIG A   1      17.662  16.208   8.356  1.00 20.00    +0.068 H 
ATOM     87 H87  LIG A   1      23.114  22.493   9.694  1.00 20.00    +0.057 H 
ATOM     88 H88  LIG A   1      24.700  22.303  11.699  1.00 20.00    +0.119 HD
ATOM     89 H89  LIG A   1      24.728  23.613  10.623  1.00 20.00    +0.119 HD
ATOM     90 H90  LIG A   1      18.841  15.957   4.972  1.00 20.00    +0.000 H 
ATOM     91 H91  LIG A   1      19.884  15.443   6.325  1.00 20.00    +0.000 H 
ATOM     92 H92  LIG A   1      20.366  16.817   5.198  1.00 20.00    +0.000 H 
ATOM     93 H93  LIG A   1      17.909  17.541   6.293  1.00 20.00    +0.000 H 
ATOM     94 H94  LIG A   1      18.858  16.915   7.740  1.00 20.00    +0.000 H 
ATOM     95 H95  LIG A   1      22.215  18.975   7.824  1.00 20.00    +0.000 H 
ATOM     96 H96  LIG A   1      21.014  18.269   8.986  1.00 20.00    +0.000 H 
ATOM     97 H97  LIG A   1      21.104  20.025   8.756  1.00 20.00    +0.000 H 
ENDROOT
TORSDOF 0
                                                                                                    
ENDMDL
MODEL 4
REMARK VINA RESULT:   -10.134      3.838     12.256
REMARK INTER + INTRA:         -10.134
REMARK INTER:                 -10.134
REMARK INTRA:                   0.000
REMARK UNBOUND:                 0.000
ROOT
ATOM      1 C1   LIG A   1      22.640  29.181  17.552  1.00 20.00    -0.060 C 
ATOM      2 C2   LIG A   1      22.202  28.794  16.109  1.00 20.00    -0.016 C 
ATOM      3 C3   LIG A   1      23.502  28.232  15.465  1.00 20.00    -0.023 C 
ATOM      4 C4   LIG A   1      23.055  27.655  14.152  1.00 20.00    -0.048 A 
ATOM      5 C5   LIG A   1      23.218  26.311  13.996  1.00 20.00    -0.058 A 
ATOM      6 C6   LIG A   1      22.419  25.728  13.010  1.00 20.00    -0.051 A 
ATOM      7 C7   LIG A   1      21.585  26.476  12.326  1.00 20.00    +0.017 A 
ATOM      8 C8   LIG A   1      21.452  27.893  12.495  1.00 20.00    -0.051 A 
ATOM      9 C9   LIG A   1      22.226  28.478  13.446  1.00 20.00    -0.058 A 
ATOM     10 C10  LIG A   1      20.414  26.068  11.489  1.00 20.00    +0.140 C 
ATOM     11 C11  LIG A   1      19.178  26.468  11.848  1.00 20.00    +0.047 C 
ATOM     12 C12  LIG A   1      18.769  27.194  13.040  1.00 20.00    +0.256 C 
ATOM     13 O13  LIG A   1      17.824  27.987  13.177  1.00 20.00    -0.269 OA
ATOM     14 N14  LIG A   1      19.393  27.011  14.375  1.00 20.00    -0.278 NA
ATOM     15 C15  LIG A   1      18.992  25.761  14.975  1.00 20.00    +0.029 C 
ATOM     16 C16  LIG A   1      19.131  24.472  14.375  1.00 20.00    -0.034 C 
ATOM     17 C17  LIG A   1      20.328  23.740  14.015  1.00 20.00    -0.034 C 
ATOM     18 C18  LIG A   1      20.397  22.835  12.899  1.00 20.00    +0.085 C 
ATOM     19 C19  LIG A   1      21.740  22.057  13.153  1.00 20.00    +0.311 C 
ATOM     20 O20  LIG A   1      22.427  21.753  12.148  1.00 20.00    -0.252 OA
ATOM     21 O21  LIG A   1      22.089  21.755  14.442  1.00 20.00    -0.481 OA
ATOM     22 C22  LIG A   1      20.379  22.951  11.458  1.00 20.00    +0.009 A 
ATOM     23 C23  LIG A   1      20.212  21.593  10.925  1.00 20.00    -0.052 A 
ATOM     24 C24  LIG A   1      20.159  21.243   9.637  1.00 20.00    -0.038 A 
ATOM     25 C25  LIG A   1      20.267  22.209   8.687  1.00 20.00    +0.038 A 
ATOM     26 N26  LIG A   1      20.240  21.875   7.340  1.00 20.00    -0.385 NA
ATOM     27 C27  LIG A   1      20.203  20.537   6.819  1.00 20.00    +0.016 C 
ATOM     28 C28  LIG A   1      21.575  19.951   6.988  1.00 20.00    -0.023 C 
ATOM     29 C29  LIG A   1      21.665  18.526   6.421  1.00 20.00    -0.003 C 
ATOM     30 N30  LIG A   1      22.986  18.069   6.616  1.00 20.00    -0.317 NA
ATOM     31 C31  LIG A   1      23.296  16.802   6.123  1.00 20.00    -0.005 C 
ATOM     32 C32  LIG A   1      23.445  16.662   4.668  1.00 20.00    -0.039 C 
ATOM     33 C33  LIG A   1      22.347  16.947   3.733  1.00 20.00    -0.040 C 
ATOM     34 C34  LIG A   1      21.089  16.143   3.921  1.00 20.00    -0.008 C 
ATOM     35 N35  LIG A   1      21.319  14.731   3.771  1.00 20.00    -0.330 NA
ATOM     36 C36  LIG A   1      20.424  23.481   9.096  1.00 20.00    +0.004 A 
ATOM     37 C37  LIG A   1      20.482  23.866  10.478  1.00 20.00    +0.133 A 
ATOM     38 O38  LIG A   1      20.660  25.281  10.448  1.00 20.00    -0.456 OA
ATOM     39 C39  LIG A   1      20.111  27.912  15.139  1.00 20.00    +0.246 C 
ATOM     40 O40  LIG A   1      19.795  29.095  14.721  1.00 20.00    -0.273 OA
ATOM     41 C41  LIG A   1      21.041  27.863  16.252  1.00 20.00    +0.088 C 
ATOM     42 N42  LIG A   1      20.357  28.142  17.530  1.00 20.00    -0.320 NA
ATOM     43 C43  LIG A   1      21.316  21.624  10.006  1.00 20.00    +0.000 C 
ATOM     44 C44  LIG A   1      21.676  23.092  10.018  1.00 20.00    +0.000 C 
ATOM     45 Se45 LIG A   1      22.285  23.640  11.777  1.00 20.00    +0.000 Se
ATOM     46 C46  LIG A   1      20.903  24.480  12.816  1.00 20.00    +0.000 C 
ATOM     47 H47  LIG A   1      21.702  29.481  18.057  1.00 20.00    +0.023 H 
ATOM     48 H48  LIG A   1      23.251  30.088  17.452  1.00 20.00    +0.023 H 
ATOM     49 H49  LIG A   1      23.093  28.343  18.076  1.00 20.00    +0.023 H 
ATOM     50 H50  LIG A   1      22.017  29.744  15.601  1.00 20.00    +0.032 H 
ATOM     51 H51  LIG A   1      23.917  27.461  16.092  1.00 20.00    +0.032 H 
ATOM     52 H52  LIG A   1      24.232  29.050  15.351  1.00 20.00    +0.032 H 
ATOM     53 H53  LIG A   1      23.912  25.740  14.590  1.00 20.00    +0.063 H 
ATOM     54 H54  LIG A   1      22.591  24.706  12.812  1.00 20.00    +0.063 H 
ATOM     55 H55  LIG A   1      20.792  28.494  11.919  1.00 20.00    +0.063 H 
ATOM     56 H56  LIG A   1      22.171  29.546  13.590  1.00 20.00    +0.063 H 
ATOM     57 H57  LIG A   1      18.393  26.227  11.131  1.00 20.00    +0.072 H 
ATOM     58 H58  LIG A   1      17.911  25.917  15.303  1.00 20.00    +0.050 H 
ATOM     59 H59  LIG A   1      19.573  25.665  15.995  1.00 20.00    +0.050 H 
ATOM     60 H60  LIG A   1      18.362  24.383  13.489  1.00 20.00    +0.029 H 
ATOM     61 H61  LIG A   1      18.558  23.798  15.139  1.00 20.00    +0.029 H 
ATOM     62 H62  LIG A   1      21.277  24.152  14.449  1.00 20.00    +0.028 H 
ATOM     63 H63  LIG A   1      20.311  22.868  14.928  1.00 20.00    +0.028 H 
ATOM     64 H64  LIG A   1      19.568  22.038  13.140  1.00 20.00    +0.047 H 
ATOM     65 H65  LIG A   1      22.613  20.891  14.585  1.00 20.00    +0.296 HD
ATOM     66 H66  LIG A   1      20.134  20.772  11.655  1.00 20.00    +0.063 H 
ATOM     67 H67  LIG A   1      20.023  20.208   9.326  1.00 20.00    +0.064 H 
ATOM     68 H68  LIG A   1      20.247  22.667   6.631  1.00 20.00    +0.160 HD
ATOM     69 H69  LIG A   1      19.967  20.574   5.745  1.00 20.00    +0.049 H 
ATOM     70 H70  LIG A   1      19.420  19.916   7.312  1.00 20.00    +0.049 H 
ATOM     71 H71  LIG A   1      21.947  19.906   8.018  1.00 20.00    +0.030 H 
ATOM     72 H72  LIG A   1      22.340  20.567   6.435  1.00 20.00    +0.030 H 
ATOM     73 H73  LIG A   1      20.912  17.922   7.030  1.00 20.00    +0.043 H 
ATOM     74 H74  LIG A   1      21.275  18.586   5.409  1.00 20.00    +0.043 H 
ATOM     75 H75  LIG A   1      23.500  18.445   7.416  1.00 20.00    +0.122 HD
ATOM     76 H76  LIG A   1      22.505  16.091   6.535  1.00 20.00    +0.043 H 
ATOM     77 H77  LIG A   1      24.256  16.456   6.649  1.00 20.00    +0.043 H 
ATOM     78 H78  LIG A   1      23.828  15.610   4.468  1.00 20.00    +0.028 H 
ATOM     79 H79  LIG A   1      24.336  17.286   4.296  1.00 20.00    +0.028 H 
ATOM     80 H80  LIG A   1      22.733  16.547   2.702  1.00 20.00    +0.028 H 
ATOM     81 H81  LIG A   1      22.122  17.983   3.495  1.00 20.00    +0.028 H 
ATOM     82 H82  LIG A   1      20.403  16.448   3.081  1.00 20.00    +0.043 H 
ATOM     83 H83  LIG A   1      20.531  16.390   4.846  1.00 20.00    +0.043 H 
ATOM     84 H84  LIG A   1      21.049  14.201   4.619  1.00 20.00    +0.118 HD
ATOM     85 H85  LIG A   1      22.320  14.576   3.581  1.00 20.00    +0.118 HD
ATOM     86 H86  LIG A   1      20.510  24.249   8.324  1.00 20.00    +0.068 H 
ATOM     87 H87  LIG A   1      21.434  26.806  16.300  1.00 20.00    +0.057 H 
ATOM     88 H88  LIG A   1      19.392  27.803  17.488  1.00 20.00    +0.119 HD
ATOM     89 H89  LIG A   1      20.896  27.608  18.247  1.00 20.00    +0.119 HD
ATOM     90 H90  LIG A   1      21.862  21.047   9.234  1.00 20.00    +0.000 H 
ATOM     91 H91  LIG A   1      20.242  21.530   9.802  1.00 20.00    +0.000 H 
ATOM     92 H92  LIG A   1      21.616  21.184  10.977  1.00 20.00    +0.000 H 
ATOM     93 H93  LIG A   1      22.527  23.210   9.296  1.00 20.00    +0.000 H 
ATOM     94 H94  LIG A   1      20.818  23.740   9.722  1.00 20.00    +0.000 H 
ATOM     95 H95  LIG A   1      20.636  23.797  13.658  1.00 20.00    +0.000 H 
ATOM     96 H96  LIG A   1      20.001  24.743  12.245  1.00 20.00    +0.000 H 
ATOM     97 H97  LIG A   1      21.262  25.432  13.285  1.00 20.00    +0.000 H 
ENDROOT
TORSDOF 0
                                                                                                    
ENDMDL
MODEL 5
REMARK VINA RESULT:   -10.061      1.745      2.496
REMARK INTER + INTRA:         -10.061
REMARK INTER:                 -10.061
REMARK INTRA:                   0.000
REMARK UNBOUND:                 0.000
ROOT
ATOM      1 C1   LIG A   1      20.198  13.663   4.281  1.00 20.00    -0.060 C 
ATOM      2 C2   LIG A   1      20.541  15.153   4.566  1.00 20.00    -0.016 C 
ATOM      3 C3   LIG A   1      19.159  15.802   4.864  1.00 20.00    -0.023 C 
ATOM      4 C4   LIG A   1      19.487  17.184   5.353  1.00 20.00    -0.048 A 
ATOM      5 C5   LIG A   1      19.126  17.473   6.635  1.00 20.00    -0.058 A 
ATOM      6 C6   LIG A   1      19.809  18.545   7.214  1.00 20.00    -0.051 A 
ATOM      7 C7   LIG A   1      20.726  19.178   6.522  1.00 20.00    +0.017 A 
ATOM      8 C8   LIG A   1      21.068  18.868   5.166  1.00 20.00    -0.051 A 
ATOM      9 C9   LIG A   1      20.410  17.832   4.584  1.00 20.00    -0.058 A 
ATOM     10 C10  LIG A   1      21.806  20.098   7.000  1.00 20.00    +0.140 C 
ATOM     11 C11  LIG A   1      23.095  19.748   6.821  1.00 20.00    +0.047 C 
ATOM     12 C12  LIG A   1      23.633  18.503   6.295  1.00 20.00    +0.256 C 
ATOM     13 O13  LIG A   1      24.686  18.321   5.664  1.00 20.00    -0.269 OA
ATOM     14 N14  LIG A   1      23.020  17.171   6.531  1.00 20.00    -0.278 NA
ATOM     15 C15  LIG A   1      23.248  16.722   7.883  1.00 20.00    +0.029 C 
ATOM     16 C16  LIG A   1      22.910  17.447   9.066  1.00 20.00    -0.034 C 
ATOM     17 C17  LIG A   1      21.610  17.835   9.578  1.00 20.00    -0.034 C 
ATOM     18 C18  LIG A   1      21.385  19.035  10.336  1.00 20.00    +0.085 C 
ATOM     19 C19  LIG A   1      19.949  18.812  10.938  1.00 20.00    +0.311 C 
ATOM     20 O20  LIG A   1      19.202  19.817  11.030  1.00 20.00    -0.252 OA
ATOM     21 O21  LIG A   1      19.590  17.550  11.326  1.00 20.00    -0.481 OA
ATOM     22 C22  LIG A   1      21.386  20.457  10.067  1.00 20.00    +0.009 A 
ATOM     23 C23  LIG A   1      21.341  21.135  11.369  1.00 20.00    -0.052 A 
ATOM     24 C24  LIG A   1      21.313  22.453  11.581  1.00 20.00    -0.038 A 
ATOM     25 C25  LIG A   1      21.325  23.292  10.512  1.00 20.00    +0.038 A 
ATOM     26 N26  LIG A   1      21.272  24.666  10.697  1.00 20.00    -0.385 NA
ATOM     27 C27  LIG A   1      21.101  25.326  11.962  1.00 20.00    +0.016 C 
ATOM     28 C28  LIG A   1      19.663  25.165  12.363  1.00 20.00    -0.023 C 
ATOM     29 C29  LIG A   1      19.353  25.875  13.689  1.00 20.00    -0.003 C 
ATOM     30 N30  LIG A   1      17.985  25.677  13.972  1.00 20.00    -0.317 NA
ATOM     31 C31  LIG A   1      17.483  26.287  15.121  1.00 20.00    -0.005 C 
ATOM     32 C32  LIG A   1      17.281  27.742  15.079  1.00 20.00    -0.039 C 
ATOM     33 C33  LIG A   1      18.386  28.684  14.853  1.00 20.00    -0.040 C 
ATOM     34 C34  LIG A   1      19.518  28.630  15.844  1.00 20.00    -0.008 C 
ATOM     35 N35  LIG A   1      19.081  28.918  17.184  1.00 20.00    -0.330 NA
ATOM     36 C36  LIG A   1      21.364  22.747   9.283  1.00 20.00    +0.004 A 
ATOM     37 C37  LIG A   1      21.395  21.331   9.046  1.00 20.00    +0.133 A 
ATOM     38 O38  LIG A   1      21.424  21.206   7.625  1.00 20.00    -0.456 OA
ATOM     39 C39  LIG A   1      22.458  16.290   5.626  1.00 20.00    +0.246 C 
ATOM     40 O40  LIG A   1      22.934  16.595   4.462  1.00 20.00    -0.273 OA
ATOM     41 C41  LIG A   1      21.557  15.153   5.663  1.00 20.00    +0.088 C 
ATOM     42 N42  LIG A   1      22.305  13.880   5.625  1.00 20.00    -0.320 NA
ATOM     43 C43  LIG A   1      20.232  22.002  11.081  1.00 20.00    +0.000 C 
ATOM     44 C44  LIG A   1      20.090  21.822   9.587  1.00 20.00    +0.000 C 
ATOM     45 Se45 LIG A   1      19.609  19.994   9.153  1.00 20.00    +0.000 Se
ATOM     46 C46  LIG A   1      21.121  18.927   8.637  1.00 20.00    +0.000 C 
ATOM     47 H47  LIG A   1      21.181  13.165   4.174  1.00 20.00    +0.023 H 
ATOM     48 H48  LIG A   1      19.723  13.643   3.291  1.00 20.00    +0.023 H 
ATOM     49 H49  LIG A   1      19.640  13.211   5.098  1.00 20.00    +0.023 H 
ATOM     50 H50  LIG A   1      20.850  15.566   3.602  1.00 20.00    +0.032 H 
ATOM     51 H51  LIG A   1      18.650  15.243   5.633  1.00 20.00    +0.032 H 
ATOM     52 H52  LIG A   1      18.553  15.801   3.944  1.00 20.00    +0.032 H 
ATOM     53 H53  LIG A   1      18.370  16.916   7.163  1.00 20.00    +0.063 H 
ATOM     54 H54  LIG A   1      19.485  18.842   8.174  1.00 20.00    +0.063 H 
ATOM     55 H55  LIG A   1      21.795  19.404   4.606  1.00 20.00    +0.063 H 
ATOM     56 H56  LIG A   1      20.623  17.579   3.557  1.00 20.00    +0.063 H 
ATOM     57 H57  LIG A   1      23.820  20.516   7.092  1.00 20.00    +0.072 H 
ATOM     58 H58  LIG A   1      24.348  16.421   7.919  1.00 20.00    +0.050 H 
ATOM     59 H59  LIG A   1      22.683  15.696   8.007  1.00 20.00    +0.050 H 
ATOM     60 H60  LIG A   1      23.637  18.367   9.167  1.00 20.00    +0.029 H 
ATOM     61 H61  LIG A   1      23.396  16.781   9.894  1.00 20.00    +0.029 H 
ATOM     62 H62  LIG A   1      20.742  17.323   9.085  1.00 20.00    +0.028 H 
ATOM     63 H63  LIG A   1      21.522  17.020  10.537  1.00 20.00    +0.028 H 
ATOM     64 H64  LIG A   1      22.094  18.912  11.265  1.00 20.00    +0.047 H 
ATOM     65 H65  LIG A   1      18.949  17.477  12.117  1.00 20.00    +0.296 HD
ATOM     66 H66  LIG A   1      21.316  20.498  12.268  1.00 20.00    +0.063 H 
ATOM     67 H67  LIG A   1      21.289  22.876  12.585  1.00 20.00    +0.064 H 
ATOM     68 H68  LIG A   1      21.363  25.288   9.840  1.00 20.00    +0.160 HD
ATOM     69 H69  LIG A   1      21.315  26.398  11.842  1.00 20.00    +0.049 H 
ATOM     70 H70  LIG A   1      21.797  24.931  12.738  1.00 20.00    +0.049 H 
ATOM     71 H71  LIG A   1      19.312  24.132  12.466  1.00 20.00    +0.030 H 
ATOM     72 H72  LIG A   1      18.983  25.621  11.587  1.00 20.00    +0.030 H 
ATOM     73 H73  LIG A   1      20.024  25.362  14.457  1.00 20.00    +0.043 H 
ATOM     74 H74  LIG A   1      19.724  26.889  13.575  1.00 20.00    +0.043 H 
ATOM     75 H75  LIG A   1      17.549  24.824  13.616  1.00 20.00    +0.122 HD
ATOM     76 H76  LIG A   1      18.171  25.984  15.978  1.00 20.00    +0.043 H 
ATOM     77 H77  LIG A   1      16.495  25.763  15.382  1.00 20.00    +0.043 H 
ATOM     78 H78  LIG A   1      16.744  28.036  16.037  1.00 20.00    +0.028 H 
ATOM     79 H79  LIG A   1      16.481  28.012  14.298  1.00 20.00    +0.028 H 
ATOM     80 H80  LIG A   1      17.922  29.736  15.080  1.00 20.00    +0.028 H 
ATOM     81 H81  LIG A   1      18.754  28.822  13.840  1.00 20.00    +0.028 H 
ATOM     82 H82  LIG A   1      20.221  29.459  15.549  1.00 20.00    +0.043 H 
ATOM     83 H83  LIG A   1      20.128  27.707  15.780  1.00 20.00    +0.043 H 
ATOM     84 H84  LIG A   1      19.291  28.141  17.836  1.00 20.00    +0.118 HD
ATOM     85 H85  LIG A   1      18.064  29.084  17.173  1.00 20.00    +0.118 HD
ATOM     86 H86  LIG A   1      21.373  23.431   8.430  1.00 20.00    +0.068 H 
ATOM     87 H87  LIG A   1      21.016  15.201   6.652  1.00 20.00    +0.057 H 
ATOM     88 H88  LIG A   1      23.209  13.995   6.092  1.00 20.00    +0.119 HD
ATOM     89 H89  LIG A   1      21.711  13.203   6.152  1.00 20.00    +0.119 HD
ATOM     90 H90  LIG A   1      19.590  22.808  11.487  1.00 20.00    +0.000 H 
ATOM     91 H91  LIG A   1      21.277  22.256  11.305  1.00 20.00    +0.000 H 
ATOM     92 H92  LIG A   1      19.894  21.071  11.578  1.00 20.00    +0.000 H 
ATOM     93 H93  LIG A   1      19.249  22.494   9.272  1.00 20.00    +0.000 H 
ATOM     94 H94  LIG A   1      21.027  22.082   9.040  1.00 20.00    +0.000 H 
ATOM     95 H95  LIG A   1      21.306  18.172   9.439  1.00 20.00    +0.000 H 
ATOM     96 H96  LIG A   1      22.039  19.502   8.444  1.00 20.00    +0.000 H 
ATOM     97 H97  LIG A   1      20.916  18.348   7.700  1.00 20.00    +0.000 H 
ENDROOT
TORSDOF 0
                                                                                                    
ENDMDL
MODEL 6
REMARK VINA RESULT:    -9.937      2.456      3.882
REMARK INTER + INTRA:          -9.937
REMARK INTER:                  -9.937
REMARK INTRA:                   0.000
REMARK UNBOUND:                 0.000
ROOT
ATOM      1 C1   LIG A   1      20.401  11.403   2.686  1.00 20.00    -0.060 C 
ATOM      2 C2   LIG A   1      20.055  11.992   4.084  1.00 20.00    -0.016 C 
ATOM      3 C3   LIG A   1      21.445  12.229   4.741  1.00 20.00    -0.023 C 
ATOM      4 C4   LIG A   1      21.144  12.996   5.997  1.00 20.00    -0.048 A 
ATOM      5 C5   LIG A   1      21.660  14.254   6.076  1.00 20.00    -0.058 A 
ATOM      6 C6   LIG A   1      21.028  15.097   6.993  1.00 20.00    -0.051 A 
ATOM      7 C7   LIG A   1      20.010  14.648   7.690  1.00 20.00    +0.017 A 
ATOM      8 C8   LIG A   1      19.504  13.311   7.605  1.00 20.00    -0.051 A 
ATOM      9 C9   LIG A   1      20.110  12.475   6.721  1.00 20.00    -0.058 A 
ATOM     10 C10  LIG A   1      18.976  15.412   8.456  1.00 20.00    +0.140 C 
ATOM     11 C11  LIG A   1      17.686  15.334   8.076  1.00 20.00    +0.047 C 
ATOM     12 C12  LIG A   1      17.119  14.662   6.916  1.00 20.00    +0.256 C 
ATOM     13 O13  LIG A   1      15.999  14.143   6.793  1.00 20.00    -0.269 OA
ATOM     14 N14  LIG A   1      17.796  14.578   5.597  1.00 20.00    -0.278 NA
ATOM     15 C15  LIG A   1      17.759  15.844   4.906  1.00 20.00    +0.029 C 
ATOM     16 C16  LIG A   1      18.228  17.088   5.430  1.00 20.00    -0.034 C 
ATOM     17 C17  LIG A   1      19.571  17.497   5.790  1.00 20.00    -0.034 C 
ATOM     18 C18  LIG A   1      19.859  18.425   6.849  1.00 20.00    +0.085 C 
ATOM     19 C19  LIG A   1      21.367  18.796   6.598  1.00 20.00    +0.311 C 
ATOM     20 O20  LIG A   1      22.090  18.975   7.608  1.00 20.00    -0.252 OA
ATOM     21 O21  LIG A   1      21.809  18.903   5.307  1.00 20.00    -0.481 OA
ATOM     22 C22  LIG A   1      19.781  18.419   8.293  1.00 20.00    +0.009 A 
ATOM     23 C23  LIG A   1      19.976  19.806   8.735  1.00 20.00    -0.052 A 
ATOM     24 C24  LIG A   1      19.994  20.246   9.995  1.00 20.00    -0.038 A 
ATOM     25 C25  LIG A   1      19.819  19.356  11.006  1.00 20.00    +0.038 A 
ATOM     26 N26  LIG A   1      19.856  19.778  12.328  1.00 20.00    -0.385 NA
ATOM     27 C27  LIG A   1      20.170  21.110  12.764  1.00 20.00    +0.016 C 
ATOM     28 C28  LIG A   1      21.653  21.295  12.611  1.00 20.00    -0.023 C 
ATOM     29 C29  LIG A   1      22.112  22.679  13.092  1.00 20.00    -0.003 C 
ATOM     30 N30  LIG A   1      23.511  22.751  12.919  1.00 20.00    -0.317 NA
ATOM     31 C31  LIG A   1      24.141  23.920  13.344  1.00 20.00    -0.005 C 
ATOM     32 C32  LIG A   1      24.293  24.117  14.792  1.00 20.00    -0.039 C 
ATOM     33 C33  LIG A   1      23.141  24.202  15.701  1.00 20.00    -0.040 C 
ATOM     34 C34  LIG A   1      22.150  25.298  15.416  1.00 20.00    -0.008 C 
ATOM     35 N35  LIG A   1      22.749  26.604  15.487  1.00 20.00    -0.330 NA
ATOM     36 C36  LIG A   1      19.635  18.063  10.683  1.00 20.00    +0.004 A 
ATOM     37 C37  LIG A   1      19.615  17.581   9.330  1.00 20.00    +0.133 A 
ATOM     38 O38  LIG A   1      19.404  16.175   9.455  1.00 20.00    -0.456 OA
ATOM     39 C39  LIG A   1      18.260  13.466   4.918  1.00 20.00    +0.246 C 
ATOM     40 O40  LIG A   1      17.628  12.444   5.396  1.00 20.00    -0.273 OA
ATOM     41 C41  LIG A   1      19.191  13.187   3.840  1.00 20.00    +0.088 C 
ATOM     42 N42  LIG A   1      18.482  13.013   2.556  1.00 20.00    -0.320 NA
ATOM     43 C43  LIG A   1      21.013  19.545   9.694  1.00 20.00    +0.000 C 
ATOM     44 C44  LIG A   1      20.964  18.037   9.787  1.00 20.00    +0.000 C 
ATOM     45 Se45 LIG A   1      21.437  17.225   8.090  1.00 20.00    +0.000 Se
ATOM     46 C46  LIG A   1      19.901  16.715   7.053  1.00 20.00    +0.000 C 
ATOM     47 H47  LIG A   1      19.427  11.330   2.165  1.00 20.00    +0.023 H 
ATOM     48 H48  LIG A   1      20.743  10.375   2.864  1.00 20.00    +0.023 H 
ATOM     49 H49  LIG A   1      21.073  12.051   2.128  1.00 20.00    +0.023 H 
ATOM     50 H50  LIG A   1      19.611  11.164   4.642  1.00 20.00    +0.032 H 
ATOM     51 H51  LIG A   1      22.065  12.816   4.083  1.00 20.00    +0.032 H 
ATOM     52 H52  LIG A   1      21.925  11.256   4.933  1.00 20.00    +0.032 H 
ATOM     53 H53  LIG A   1      22.494  14.576   5.475  1.00 20.00    +0.063 H 
ATOM     54 H54  LIG A   1      21.465  16.047   7.135  1.00 20.00    +0.063 H 
ATOM     55 H55  LIG A   1      18.695  12.950   8.191  1.00 20.00    +0.063 H 
ATOM     56 H56  LIG A   1      19.772  11.453   6.641  1.00 20.00    +0.063 H 
ATOM     57 H57  LIG A   1      16.980  15.826   8.746  1.00 20.00    +0.072 H 
ATOM     58 H58  LIG A   1      16.683  15.961   4.548  1.00 20.00    +0.050 H 
ATOM     59 H59  LIG A   1      18.365  15.711   3.905  1.00 20.00    +0.050 H 
ATOM     60 H60  LIG A   1      17.494  17.441   6.279  1.00 20.00    +0.029 H 
ATOM     61 H61  LIG A   1      17.873  17.836   4.605  1.00 20.00    +0.029 H 
ATOM     62 H62  LIG A   1      20.382  16.817   5.417  1.00 20.00    +0.028 H 
ATOM     63 H63  LIG A   1      19.807  18.276   4.825  1.00 20.00    +0.028 H 
ATOM     64 H64  LIG A   1      19.280  19.397   6.528  1.00 20.00    +0.047 H 
ATOM     65 H65  LIG A   1      22.550  19.584   5.131  1.00 20.00    +0.296 HD
ATOM     66 H66  LIG A   1      20.136  20.566   7.952  1.00 20.00    +0.063 H 
ATOM     67 H67  LIG A   1      20.136  21.300  10.236  1.00 20.00    +0.064 H 
ATOM     68 H68  LIG A   1      19.636  19.064  13.085  1.00 20.00    +0.160 HD
ATOM     69 H69  LIG A   1      19.912  21.212  13.828  1.00 20.00    +0.049 H 
ATOM     70 H70  LIG A   1      19.594  21.882  12.204  1.00 20.00    +0.049 H 
ATOM     71 H71  LIG A   1      22.043  21.166  11.594  1.00 20.00    +0.030 H 
ATOM     72 H72  LIG A   1      22.212  20.536  13.229  1.00 20.00    +0.030 H 
ATOM     73 H73  LIG A   1      21.562  23.418  12.419  1.00 20.00    +0.043 H 
ATOM     74 H74  LIG A   1      21.700  22.796  14.090  1.00 20.00    +0.043 H 
ATOM     75 H75  LIG A   1      23.920  22.197  12.164  1.00 20.00    +0.122 HD
ATOM     76 H76  LIG A   1      23.579  24.787  12.860  1.00 20.00    +0.043 H 
ATOM     77 H77  LIG A   1      25.169  23.959  12.834  1.00 20.00    +0.043 H 
ATOM     78 H78  LIG A   1      24.942  25.039  14.941  1.00 20.00    +0.028 H 
ATOM     79 H79  LIG A   1      24.976  23.304  15.235  1.00 20.00    +0.028 H 
ATOM     80 H80  LIG A   1      23.600  24.555  16.719  1.00 20.00    +0.028 H 
ATOM     81 H81  LIG A   1      22.640  23.283  15.994  1.00 20.00    +0.028 H 
ATOM     82 H82  LIG A   1      21.391  25.246  16.246  1.00 20.00    +0.043 H 
ATOM     83 H83  LIG A   1      21.564  25.145  14.488  1.00 20.00    +0.043 H 
ATOM     84 H84  LIG A   1      22.649  27.126  14.598  1.00 20.00    +0.118 HD
ATOM     85 H85  LIG A   1      23.751  26.498  15.705  1.00 20.00    +0.118 HD
ATOM     86 H86  LIG A   1      19.496  17.355  11.504  1.00 20.00    +0.068 H 
ATOM     87 H87  LIG A   1      19.855  14.095   3.741  1.00 20.00    +0.057 H 
ATOM     88 H88  LIG A   1      17.643  13.601   2.541  1.00 20.00    +0.119 HD
ATOM     89 H89  LIG A   1      19.159  13.332   1.829  1.00 20.00    +0.119 HD
ATOM     90 H90  LIG A   1      21.678  20.007  10.450  1.00 20.00    +0.000 H 
ATOM     91 H91  LIG A   1      19.999  19.937   9.852  1.00 20.00    +0.000 H 
ATOM     92 H92  LIG A   1      21.439  19.820   8.710  1.00 20.00    +0.000 H 
ATOM     93 H93  LIG A   1      21.737  17.746  10.546  1.00 20.00    +0.000 H 
ATOM     94 H94  LIG A   1      19.957  17.665  10.089  1.00 20.00    +0.000 H 
ATOM     95 H95  LIG A   1      19.844  17.385   6.161  1.00 20.00    +0.000 H 
ATOM     96 H96  LIG A   1      18.951  16.744   7.604  1.00 20.00    +0.000 H 
ATOM     97 H97  LIG A   1      19.999  15.672   6.658  1.00 20.00    +0.000 H 
ENDROOT
TORSDOF 0
                                                                                                    
ENDMDL
MODEL 7
REMARK VINA RESULT:    -9.822      3.096      5.336
REMARK INTER + INTRA:          -9.822
REMARK INTER:                  -9.822
REMARK INTRA:                   0.000
REMARK UNBOUND:                 0.000
ROOT
ATOM      1 C1   LIG A   1      24.807  16.518   4.811  1.00 20.00    -0.060 C 
ATOM      2 C2   LIG A   1      23.947  16.868   6.060  1.00 20.00    -0.016 C 
ATOM      3 C3   LIG A   1      24.978  17.448   7.070  1.00 20.00    -0.023 C 
ATOM      4 C4   LIG A   1      24.142  17.992   8.194  1.00 20.00    -0.048 A 
ATOM      5 C5   LIG A   1      24.214  19.336   8.405  1.00 20.00    -0.058 A 
ATOM      6 C6   LIG A   1      23.140  19.882   9.112  1.00 20.00    -0.051 A 
ATOM      7 C7   LIG A   1      22.161  19.102   9.507  1.00 20.00    +0.017 A 
ATOM      8 C8   LIG A   1      22.124  17.685   9.292  1.00 20.00    -0.051 A 
ATOM      9 C9   LIG A   1      23.164  17.136   8.611  1.00 20.00    -0.058 A 
ATOM     10 C10  LIG A   1      20.782  19.467   9.958  1.00 20.00    +0.140 C 
ATOM     11 C11  LIG A   1      19.722  19.044   9.242  1.00 20.00    +0.047 C 
ATOM     12 C12  LIG A   1      19.709  18.330   7.975  1.00 20.00    +0.256 C 
ATOM     13 O13  LIG A   1      18.871  17.518   7.553  1.00 20.00    -0.269 OA
ATOM     14 N14  LIG A   1      20.699  18.552   6.890  1.00 20.00    -0.278 NA
ATOM     15 C15  LIG A   1      20.461  19.803   6.210  1.00 20.00    +0.029 C 
ATOM     16 C16  LIG A   1      20.378  21.084   6.837  1.00 20.00    -0.034 C 
ATOM     17 C17  LIG A   1      21.391  21.838   7.547  1.00 20.00    -0.034 C 
ATOM     18 C18  LIG A   1      21.097  22.723   8.641  1.00 20.00    +0.085 C 
ATOM     19 C19  LIG A   1      22.433  23.537   8.809  1.00 20.00    +0.311 C 
ATOM     20 O20  LIG A   1      22.778  23.840   9.978  1.00 20.00    -0.252 OA
ATOM     21 O21  LIG A   1      23.143  23.871   7.688  1.00 20.00    -0.481 OA
ATOM     22 C22  LIG A   1      20.652  22.581  10.009  1.00 20.00    +0.009 A 
ATOM     23 C23  LIG A   1      20.295  23.925  10.482  1.00 20.00    -0.052 A 
ATOM     24 C24  LIG A   1      19.849  24.250  11.698  1.00 20.00    -0.038 A 
ATOM     25 C25  LIG A   1      19.695  23.270  12.626  1.00 20.00    +0.038 A 
ATOM     26 N26  LIG A   1      19.256  23.579  13.906  1.00 20.00    -0.385 NA
ATOM     27 C27  LIG A   1      19.027  24.906  14.407  1.00 20.00    +0.016 C 
ATOM     28 C28  LIG A   1      20.370  25.528  14.662  1.00 20.00    -0.023 C 
ATOM     29 C29  LIG A   1      20.246  26.944  15.245  1.00 20.00    -0.003 C 
ATOM     30 N30  LIG A   1      21.551  27.435  15.459  1.00 20.00    -0.317 NA
ATOM     31 C31  LIG A   1      21.664  28.700  16.035  1.00 20.00    -0.005 C 
ATOM     32 C32  LIG A   1      21.367  28.818  17.469  1.00 20.00    -0.039 C 
ATOM     33 C33  LIG A   1      20.047  28.490  18.029  1.00 20.00    -0.040 C 
ATOM     34 C34  LIG A   1      18.881  29.267  17.481  1.00 20.00    -0.008 C 
ATOM     35 N35  LIG A   1      19.016  30.682  17.707  1.00 20.00    -0.330 NA
ATOM     36 C36  LIG A   1      20.002  22.010  12.271  1.00 20.00    +0.004 A 
ATOM     37 C37  LIG A   1      20.482  21.652  10.966  1.00 20.00    +0.133 A 
ATOM     38 O38  LIG A   1      20.683  20.240  11.034  1.00 20.00    -0.456 OA
ATOM     39 C39  LIG A   1      21.638  17.682   6.367  1.00 20.00    +0.246 C 
ATOM     40 O40  LIG A   1      21.244  16.485   6.660  1.00 20.00    -0.273 OA
ATOM     41 C41  LIG A   1      22.857  17.773   5.585  1.00 20.00    +0.088 C 
ATOM     42 N42  LIG A   1      22.594  17.501   4.157  1.00 20.00    -0.320 NA
ATOM     43 C43  LIG A   1      21.074  23.903  11.689  1.00 20.00    +0.000 C 
ATOM     44 C44  LIG A   1      21.462  22.445  11.770  1.00 20.00    +0.000 C 
ATOM     45 Se45 LIG A   1      22.584  21.943  10.270  1.00 20.00    +0.000 Se
ATOM     46 C46  LIG A   1      21.601  21.090   8.856  1.00 20.00    +0.000 C 
ATOM     47 H47  LIG A   1      24.073  16.204   4.045  1.00 20.00    +0.023 H 
ATOM     48 H48  LIG A   1      25.386  15.624   5.080  1.00 20.00    +0.023 H 
ATOM     49 H49  LIG A   1      25.373  17.376   4.455  1.00 20.00    +0.023 H 
ATOM     50 H50  LIG A   1      23.646  15.904   6.479  1.00 20.00    +0.032 H 
ATOM     51 H51  LIG A   1      25.540  18.241   6.604  1.00 20.00    +0.032 H 
ATOM     52 H52  LIG A   1      25.663  16.647   7.389  1.00 20.00    +0.032 H 
ATOM     53 H53  LIG A   1      25.038  19.934   8.053  1.00 20.00    +0.063 H 
ATOM     54 H54  LIG A   1      23.216  20.904   9.363  1.00 20.00    +0.063 H 
ATOM     55 H55  LIG A   1      21.339  17.059   9.638  1.00 20.00    +0.063 H 
ATOM     56 H56  LIG A   1      23.184  16.070   8.446  1.00 20.00    +0.063 H 
ATOM     57 H57  LIG A   1      18.752  19.254   9.693  1.00 20.00    +0.072 H 
ATOM     58 H58  LIG A   1      19.533  19.627   5.572  1.00 20.00    +0.050 H 
ATOM     59 H59  LIG A   1      21.318  19.931   5.412  1.00 20.00    +0.050 H 
ATOM     60 H60  LIG A   1      19.377  21.138   7.453  1.00 20.00    +0.029 H 
ATOM     61 H61  LIG A   1      20.041  21.758   5.944  1.00 20.00    +0.029 H 
ATOM     62 H62  LIG A   1      22.438  21.456   7.413  1.00 20.00    +0.028 H 
ATOM     63 H63  LIG A   1      21.624  22.725   6.680  1.00 20.00    +0.028 H 
ATOM     64 H64  LIG A   1      20.357  23.505   8.171  1.00 20.00    +0.047 H 
ATOM     65 H65  LIG A   1      23.661  24.750   7.717  1.00 20.00    +0.296 HD
ATOM     66 H66  LIG A   1      20.416  24.757   9.770  1.00 20.00    +0.063 H 
ATOM     67 H67  LIG A   1      19.597  25.277  11.964  1.00 20.00    +0.064 H 
ATOM     68 H68  LIG A   1      19.073  22.775  14.577  1.00 20.00    +0.160 HD
ATOM     69 H69  LIG A   1      18.482  24.844  15.359  1.00 20.00    +0.049 H 
ATOM     70 H70  LIG A   1      18.411  25.517  13.708  1.00 20.00    +0.049 H 
ATOM     71 H71  LIG A   1      21.032  25.600  13.791  1.00 20.00    +0.030 H 
ATOM     72 H72  LIG A   1      20.951  24.920  15.413  1.00 20.00    +0.030 H 
ATOM     73 H73  LIG A   1      19.694  27.540  14.445  1.00 20.00    +0.043 H 
ATOM     74 H74  LIG A   1      19.573  26.856  16.093  1.00 20.00    +0.043 H 
ATOM     75 H75  LIG A   1      22.292  27.086  14.847  1.00 20.00    +0.122 HD
ATOM     76 H76  LIG A   1      21.013  29.400  15.413  1.00 20.00    +0.043 H 
ATOM     77 H77  LIG A   1      22.727  29.078  15.824  1.00 20.00    +0.043 H 
ATOM     78 H78  LIG A   1      21.643  29.874  17.785  1.00 20.00    +0.028 H 
ATOM     79 H79  LIG A   1      22.123  28.208  18.085  1.00 20.00    +0.028 H 
ATOM     80 H80  LIG A   1      20.096  28.881  19.132  1.00 20.00    +0.028 H 
ATOM     81 H81  LIG A   1      19.790  27.445  18.178  1.00 20.00    +0.028 H 
ATOM     82 H82  LIG A   1      17.984  28.931  18.073  1.00 20.00    +0.043 H 
ATOM     83 H83  LIG A   1      18.633  29.023  16.429  1.00 20.00    +0.043 H 
ATOM     84 H84  LIG A   1      18.998  31.220  16.822  1.00 20.00    +0.118 HD
ATOM     85 H85  LIG A   1      19.910  30.856  18.191  1.00 20.00    +0.118 HD
ATOM     86 H86  LIG A   1      19.875  21.230  13.025  1.00 20.00    +0.068 H 
ATOM     87 H87  LIG A   1      23.216  18.840   5.667  1.00 20.00    +0.057 H 
ATOM     88 H88  LIG A   1      21.652  17.817   3.912  1.00 20.00    +0.119 HD
ATOM     89 H89  LIG A   1      23.308  18.061   3.641  1.00 20.00    +0.119 HD
ATOM     90 H90  LIG A   1      21.347  24.479  12.595  1.00 20.00    +0.000 H 
ATOM     91 H91  LIG A   1      19.985  23.968  11.562  1.00 20.00    +0.000 H 
ATOM     92 H92  LIG A   1      21.638  24.368  10.857  1.00 20.00    +0.000 H 
ATOM     93 H93  LIG A   1      22.060  22.334  12.713  1.00 20.00    +0.000 H 
ATOM     94 H94  LIG A   1      20.573  21.772  11.789  1.00 20.00    +0.000 H 
ATOM     95 H95  LIG A   1      21.579  21.782   7.979  1.00 20.00    +0.000 H 
ATOM     96 H96  LIG A   1      20.578  20.795   9.127  1.00 20.00    +0.000 H 
ATOM     97 H97  LIG A   1      22.111  20.155   8.506  1.00 20.00    +0.000 H 
ENDROOT
TORSDOF 0
                                                                                                    
ENDMDL
MODEL 8
REMARK VINA RESULT:    -9.660      3.840      5.064
REMARK INTER + INTRA:          -9.660
REMARK INTER:                  -9.660
REMARK INTRA:                   0.000
REMARK UNBOUND:                 0.000
ROOT
ATOM      1 C1   LIG A   1      18.398  12.361  12.047  1.00 20.00    -0.060 C 
ATOM      2 C2   LIG A   1      18.886  13.325  10.927  1.00 20.00    -0.016 C 
ATOM      3 C3   LIG A   1      17.672  14.271  10.697  1.00 20.00    -0.023 C 
ATOM      4 C4   LIG A   1      18.195  15.341   9.781  1.00 20.00    -0.048 A 
ATOM      5 C5   LIG A   1      18.209  16.609  10.279  1.00 20.00    -0.058 A 
ATOM      6 C6   LIG A   1      19.080  17.488   9.632  1.00 20.00    -0.051 A 
ATOM      7 C7   LIG A   1      19.810  17.057   8.630  1.00 20.00    +0.017 A 
ATOM      8 C8   LIG A   1      19.756  15.723   8.111  1.00 20.00    -0.051 A 
ATOM      9 C9   LIG A   1      18.909  14.855   8.724  1.00 20.00    -0.058 A 
ATOM     10 C10  LIG A   1      21.027  17.671   8.011  1.00 20.00    +0.140 C 
ATOM     11 C11  LIG A   1      22.199  17.008   8.067  1.00 20.00    +0.047 C 
ATOM     12 C12  LIG A   1      22.507  15.765   8.757  1.00 20.00    +0.256 C 
ATOM     13 O13  LIG A   1      23.338  14.896   8.453  1.00 20.00    -0.269 OA
ATOM     14 N14  LIG A   1      21.909  15.371  10.059  1.00 20.00    -0.278 NA
ATOM     15 C15  LIG A   1      22.469  16.137  11.146  1.00 20.00    +0.029 C 
ATOM     16 C16  LIG A   1      22.502  17.563  11.225  1.00 20.00    -0.034 C 
ATOM     17 C17  LIG A   1      21.412  18.513  11.320  1.00 20.00    -0.034 C 
ATOM     18 C18  LIG A   1      21.465  19.836  10.760  1.00 20.00    +0.085 C 
ATOM     19 C19  LIG A   1      20.235  20.555  11.427  1.00 20.00    +0.311 C 
ATOM     20 O20  LIG A   1      19.596  21.374  10.722  1.00 20.00    -0.252 OA
ATOM     21 O21  LIG A   1      19.926  20.255  12.726  1.00 20.00    -0.481 OA
ATOM     22 C22  LIG A   1      21.471  20.409   9.432  1.00 20.00    +0.009 A 
ATOM     23 C23  LIG A   1      21.815  21.829   9.584  1.00 20.00    -0.052 A 
ATOM     24 C24  LIG A   1      21.917  22.733   8.606  1.00 20.00    -0.038 A 
ATOM     25 C25  LIG A   1      21.685  22.346   7.325  1.00 20.00    +0.038 A 
ATOM     26 N26  LIG A   1      21.759  23.268   6.289  1.00 20.00    -0.385 NA
ATOM     27 C27  LIG A   1      21.972  24.679   6.449  1.00 20.00    +0.016 C 
ATOM     28 C28  LIG A   1      20.689  25.273   6.954  1.00 20.00    -0.023 C 
ATOM     29 C29  LIG A   1      20.788  26.797   7.122  1.00 20.00    -0.003 C 
ATOM     30 N30  LIG A   1      19.538  27.259   7.586  1.00 20.00    -0.317 NA
ATOM     31 C31  LIG A   1      19.398  28.636   7.759  1.00 20.00    -0.005 C 
ATOM     32 C32  LIG A   1      19.272  29.459   6.549  1.00 20.00    -0.039 C 
ATOM     33 C33  LIG A   1      20.325  29.521   5.525  1.00 20.00    -0.040 C 
ATOM     34 C34  LIG A   1      21.677  29.989   5.990  1.00 20.00    -0.008 C 
ATOM     35 N35  LIG A   1      21.635  31.322   6.529  1.00 20.00    -0.330 NA
ATOM     36 C36  LIG A   1      21.362  21.060   7.103  1.00 20.00    +0.004 A 
ATOM     37 C37  LIG A   1      21.251  20.081   8.147  1.00 20.00    +0.133 A 
ATOM     38 O38  LIG A   1      20.888  18.877   7.472  1.00 20.00    -0.456 OA
ATOM     39 C39  LIG A   1      21.077  14.308  10.356  1.00 20.00    +0.246 C 
ATOM     40 O40  LIG A   1      21.236  13.432   9.418  1.00 20.00    -0.273 OA
ATOM     41 C41  LIG A   1      20.159  13.937  11.417  1.00 20.00    +0.088 C 
ATOM     42 N42  LIG A   1      20.798  13.013  12.375  1.00 20.00    -0.320 NA
ATOM     43 C43  LIG A   1      20.719  22.362   8.824  1.00 20.00    +0.000 C 
ATOM     44 C44  LIG A   1      20.169  21.113   8.173  1.00 20.00    +0.000 C 
ATOM     45 Se45 LIG A   1      19.490  19.880   9.507  1.00 20.00    +0.000 Se
ATOM     46 C46  LIG A   1      20.747  18.495   9.951  1.00 20.00    +0.000 C 
ATOM     47 H47  LIG A   1      19.287  11.751  12.297  1.00 20.00    +0.023 H 
ATOM     48 H48  LIG A   1      17.673  11.685  11.573  1.00 20.00    +0.023 H 
ATOM     49 H49  LIG A   1      18.058  12.901  12.928  1.00 20.00    +0.023 H 
ATOM     50 H50  LIG A   1      18.946  12.710  10.025  1.00 20.00    +0.032 H 
ATOM     51 H51  LIG A   1      17.361  14.701  11.636  1.00 20.00    +0.032 H 
ATOM     52 H52  LIG A   1      16.842  13.695  10.260  1.00 20.00    +0.032 H 
ATOM     53 H53  LIG A   1      17.595  16.912  11.110  1.00 20.00    +0.063 H 
ATOM     54 H54  LIG A   1      19.044  18.496   9.943  1.00 20.00    +0.063 H 
ATOM     55 H55  LIG A   1      20.332  15.391   7.283  1.00 20.00    +0.063 H 
ATOM     56 H56  LIG A   1      18.824  13.846   8.351  1.00 20.00    +0.063 H 
ATOM     57 H57  LIG A   1      23.010  17.464   7.500  1.00 20.00    +0.072 H 
ATOM     58 H58  LIG A   1      23.519  15.720  11.298  1.00 20.00    +0.050 H 
ATOM     59 H59  LIG A   1      21.903  15.810  12.126  1.00 20.00    +0.050 H 
ATOM     60 H60  LIG A   1      23.278  17.967  10.438  1.00 20.00    +0.029 H 
ATOM     61 H61  LIG A   1      23.157  17.727  12.179  1.00 20.00    +0.029 H 
ATOM     62 H62  LIG A   1      20.416  18.059  11.568  1.00 20.00    +0.028 H 
ATOM     63 H63  LIG A   1      21.541  18.845  12.530  1.00 20.00    +0.028 H 
ATOM     64 H64  LIG A   1      22.391  20.324  11.294  1.00 20.00    +0.047 H 
ATOM     65 H65  LIG A   1      19.520  21.005  13.286  1.00 20.00    +0.296 HD
ATOM     66 H66  LIG A   1      22.000  22.195  10.606  1.00 20.00    +0.063 H 
ATOM     67 H67  LIG A   1      22.189  23.770   8.806  1.00 20.00    +0.064 H 
ATOM     68 H68  LIG A   1      21.649  22.909   5.295  1.00 20.00    +0.160 HD
ATOM     69 H69  LIG A   1      22.203  25.123   5.470  1.00 20.00    +0.049 H 
ATOM     70 H70  LIG A   1      22.829  24.899   7.127  1.00 20.00    +0.049 H 
ATOM     71 H71  LIG A   1      20.324  24.872   7.907  1.00 20.00    +0.030 H 
ATOM     72 H72  LIG A   1      19.851  25.083   6.225  1.00 20.00    +0.030 H 
ATOM     73 H73  LIG A   1      21.612  26.952   7.896  1.00 20.00    +0.043 H 
ATOM     74 H74  LIG A   1      21.169  27.174   6.177  1.00 20.00    +0.043 H 
ATOM     75 H75  LIG A   1      18.977  26.615   8.148  1.00 20.00    +0.122 HD
ATOM     76 H76  LIG A   1      20.275  28.973   8.407  1.00 20.00    +0.043 H 
ATOM     77 H77  LIG A   1      18.491  28.804   8.442  1.00 20.00    +0.043 H 
ATOM     78 H78  LIG A   1      19.031  30.518   6.885  1.00 20.00    +0.028 H 
ATOM     79 H79  LIG A   1      18.307  29.192   5.983  1.00 20.00    +0.028 H 
ATOM     80 H80  LIG A   1      19.997  30.400   4.824  1.00 20.00    +0.028 H 
ATOM     81 H81  LIG A   1      20.413  28.700   4.819  1.00 20.00    +0.028 H 
ATOM     82 H82  LIG A   1      22.319  30.036   5.066  1.00 20.00    +0.043 H 
ATOM     83 H83  LIG A   1      22.196  29.273   6.658  1.00 20.00    +0.043 H 
ATOM     84 H84  LIG A   1      21.970  31.356   7.508  1.00 20.00    +0.118 HD
ATOM     85 H85  LIG A   1      20.663  31.664   6.493  1.00 20.00    +0.118 HD
ATOM     86 H86  LIG A   1      21.177  20.760   6.068  1.00 20.00    +0.068 H 
ATOM     87 H87  LIG A   1      19.908  14.885  11.976  1.00 20.00    +0.057 H 
ATOM     88 H88  LIG A   1      21.800  13.217  12.438  1.00 20.00    +0.119 HD
ATOM     89 H89  LIG A   1      20.332  13.207  13.289  1.00 20.00    +0.119 HD
ATOM     90 H90  LIG A   1      20.255  23.293   8.443  1.00 20.00    +0.000 H 
ATOM     91 H91  LIG A   1      21.797  22.414   8.623  1.00 20.00    +0.000 H 
ATOM     92 H92  LIG A   1      20.477  22.326   9.904  1.00 20.00    +0.000 H 
ATOM     93 H93  LIG A   1      19.312  21.448   7.531  1.00 20.00    +0.000 H 
ATOM     94 H94  LIG A   1      20.936  20.585   7.558  1.00 20.00    +0.000 H 
ATOM     95 H95  LIG A   1      21.101  18.667  10.996  1.00 20.00    +0.000 H 
ATOM     96 H96  LIG A   1      21.608  18.427   9.270  1.00 20.00    +0.000 H 
ATOM     97 H97  LIG A   1      20.266  17.484   9.943  1.00 20.00    +0.000 H 
ENDROOT
TORSDOF 0
                                                                                                    
ENDMDL
MODEL 9
REMARK VINA RESULT:    -9.583      4.870     10.966
REMARK INTER + INTRA:          -9.583
REMARK INTER:                  -9.583
REMARK INTRA:                   0.000
REMARK UNBOUND:                 0.000
ROOT
ATOM      1 C1   LIG A   1      24.545  15.302  11.845  1.00 20.00    -0.060 C 
ATOM      2 C2   LIG A   1      23.573  15.826  10.749  1.00 20.00    -0.016 C 
ATOM      3 C3   LIG A   1      23.900  14.943   9.510  1.00 20.00    -0.023 C 
ATOM      4 C4   LIG A   1      22.830  15.281   8.511  1.00 20.00    -0.048 A 
ATOM      5 C5   LIG A   1      21.995  14.266   8.153  1.00 20.00    -0.058 A 
ATOM      6 C6   LIG A   1      20.775  14.670   7.605  1.00 20.00    -0.051 A 
ATOM      7 C7   LIG A   1      20.512  15.949   7.481  1.00 20.00    +0.017 A 
ATOM      8 C8   LIG A   1      21.421  16.996   7.844  1.00 20.00    -0.051 A 
ATOM      9 C9   LIG A   1      22.615  16.622   8.373  1.00 20.00    -0.058 A 
ATOM     10 C10  LIG A   1      19.198  16.629   7.258  1.00 20.00    +0.140 C 
ATOM     11 C11  LIG A   1      18.724  17.470   8.198  1.00 20.00    +0.047 C 
ATOM     12 C12  LIG A   1      19.273  17.765   9.513  1.00 20.00    +0.256 C 
ATOM     13 O13  LIG A   1      19.200  18.818  10.164  1.00 20.00    -0.269 OA
ATOM     14 N14  LIG A   1      19.960  16.761  10.366  1.00 20.00    -0.278 NA
ATOM     15 C15  LIG A   1      19.018  15.833  10.945  1.00 20.00    +0.029 C 
ATOM     16 C16  LIG A   1      18.075  15.046  10.216  1.00 20.00    -0.034 C 
ATOM     17 C17  LIG A   1      18.298  13.983   9.257  1.00 20.00    -0.034 C 
ATOM     18 C18  LIG A   1      17.418  13.718   8.151  1.00 20.00    +0.085 C 
ATOM     19 C19  LIG A   1      17.887  12.301   7.655  1.00 20.00    +0.311 C 
ATOM     20 O20  LIG A   1      17.864  12.088   6.418  1.00 20.00    -0.252 OA
ATOM     21 O21  LIG A   1      18.291  11.381   8.585  1.00 20.00    -0.481 OA
ATOM     22 C22  LIG A   1      17.071  14.377   6.911  1.00 20.00    +0.009 A 
ATOM     23 C23  LIG A   1      15.893  13.682   6.377  1.00 20.00    -0.052 A 
ATOM     24 C24  LIG A   1      15.253  13.959   5.237  1.00 20.00    -0.038 A 
ATOM     25 C25  LIG A   1      15.703  14.978   4.460  1.00 20.00    +0.038 A 
ATOM     26 N26  LIG A   1      15.075  15.275   3.259  1.00 20.00    -0.385 NA
ATOM     27 C27  LIG A   1      14.002  14.519   2.676  1.00 20.00    +0.016 C 
ATOM     28 C28  LIG A   1      14.594  13.259   2.113  1.00 20.00    -0.023 C 
ATOM     29 C29  LIG A   1      13.536  12.386   1.420  1.00 20.00    -0.003 C 
ATOM     30 N30  LIG A   1      14.188  11.240   0.918  1.00 20.00    -0.317 NA
ATOM     31 C31  LIG A   1      13.408  10.331   0.204  1.00 20.00    -0.005 C 
ATOM     32 C32  LIG A   1      12.999  10.714  -1.155  1.00 20.00    -0.039 C 
ATOM     33 C33  LIG A   1      12.172  11.900  -1.423  1.00 20.00    -0.040 C 
ATOM     34 C34  LIG A   1      10.826  11.937  -0.751  1.00 20.00    -0.008 C 
ATOM     35 N35  LIG A   1       9.992  10.833  -1.144  1.00 20.00    -0.330 NA
ATOM     36 C36  LIG A   1      16.781  15.663   4.881  1.00 20.00    +0.004 A 
ATOM     37 C37  LIG A   1      17.476  15.373   6.104  1.00 20.00    +0.133 A 
ATOM     38 O38  LIG A   1      18.539  16.323   6.146  1.00 20.00    -0.456 OA
ATOM     39 C39  LIG A   1      21.274  16.723  10.793  1.00 20.00    +0.246 C 
ATOM     40 O40  LIG A   1      21.732  17.929  10.704  1.00 20.00    -0.273 OA
ATOM     41 C41  LIG A   1      22.195  15.734  11.322  1.00 20.00    +0.088 C 
ATOM     42 N42  LIG A   1      22.281  15.820  12.793  1.00 20.00    -0.320 NA
ATOM     43 C43  LIG A   1      16.405  13.450   5.055  1.00 20.00    +0.000 C 
ATOM     44 C44  LIG A   1      17.641  14.320   5.054  1.00 20.00    +0.000 C 
ATOM     45 Se45 LIG A   1      18.928  13.696   6.364  1.00 20.00    +0.000 Se
ATOM     46 C46  LIG A   1      18.845  14.674   8.016  1.00 20.00    +0.000 C 
ATOM     47 H47  LIG A   1      24.250  15.846  12.762  1.00 20.00    +0.023 H 
ATOM     48 H48  LIG A   1      25.543  15.666  11.567  1.00 20.00    +0.023 H 
ATOM     49 H49  LIG A   1      24.442  14.230  12.000  1.00 20.00    +0.023 H 
ATOM     50 H50  LIG A   1      23.940  16.824  10.494  1.00 20.00    +0.032 H 
ATOM     51 H51  LIG A   1      23.845  13.901   9.780  1.00 20.00    +0.032 H 
ATOM     52 H52  LIG A   1      24.915  15.180   9.154  1.00 20.00    +0.032 H 
ATOM     53 H53  LIG A   1      22.255  13.229   8.282  1.00 20.00    +0.063 H 
ATOM     54 H54  LIG A   1      20.149  13.902   7.240  1.00 20.00    +0.063 H 
ATOM     55 H55  LIG A   1      21.208  18.029   7.716  1.00 20.00    +0.063 H 
ATOM     56 H56  LIG A   1      23.336  17.379   8.641  1.00 20.00    +0.063 H 
ATOM     57 H57  LIG A   1      17.821  18.011   7.916  1.00 20.00    +0.072 H 
ATOM     58 H58  LIG A   1      18.478  16.421  11.760  1.00 20.00    +0.050 H 
ATOM     59 H59  LIG A   1      19.642  15.040  11.553  1.00 20.00    +0.050 H 
ATOM     60 H60  LIG A   1      17.236  15.755   9.795  1.00 20.00    +0.029 H 
ATOM     61 H61  LIG A   1      17.449  14.572  11.083  1.00 20.00    +0.029 H 
ATOM     62 H62  LIG A   1      19.348  13.587   9.233  1.00 20.00    +0.028 H 
ATOM     63 H63  LIG A   1      17.962  12.997   9.969  1.00 20.00    +0.028 H 
ATOM     64 H64  LIG A   1      16.385  13.501   8.667  1.00 20.00    +0.047 H 
ATOM     65 H65  LIG A   1      18.110  10.400   8.369  1.00 20.00    +0.296 HD
ATOM     66 H66  LIG A   1      15.496  12.839   6.964  1.00 20.00    +0.063 H 
ATOM     67 H67  LIG A   1      14.375  13.397   4.918  1.00 20.00    +0.064 H 
ATOM     68 H68  LIG A   1      15.409  16.128   2.720  1.00 20.00    +0.160 HD
ATOM     69 H69  LIG A   1      13.558  15.097   1.852  1.00 20.00    +0.049 H 
ATOM     70 H70  LIG A   1      13.191  14.307   3.410  1.00 20.00    +0.049 H 
ATOM     71 H71  LIG A   1      15.113  12.616   2.833  1.00 20.00    +0.030 H 
ATOM     72 H72  LIG A   1      15.372  13.501   1.334  1.00 20.00    +0.030 H 
ATOM     73 H73  LIG A   1      12.791  12.125   2.243  1.00 20.00    +0.043 H 
ATOM     74 H74  LIG A   1      13.021  13.043   0.725  1.00 20.00    +0.043 H 
ATOM     75 H75  LIG A   1      15.021  10.917   1.415  1.00 20.00    +0.122 HD
ATOM     76 H76  LIG A   1      12.507  10.089   0.860  1.00 20.00    +0.043 H 
ATOM     77 H77  LIG A   1      13.982   9.338   0.173  1.00 20.00    +0.043 H 
ATOM     78 H78  LIG A   1      12.497   9.808  -1.624  1.00 20.00    +0.028 H 
ATOM     79 H79  LIG A   1      13.921  10.821  -1.834  1.00 20.00    +0.028 H 
ATOM     80 H80  LIG A   1      11.872  11.795  -2.551  1.00 20.00    +0.028 H 
ATOM     81 H81  LIG A   1      12.646  12.878  -1.414  1.00 20.00    +0.028 H 
ATOM     82 H82  LIG A   1      10.323  12.871  -1.129  1.00 20.00    +0.043 H 
ATOM     83 H83  LIG A   1      10.876  12.068   0.348  1.00 20.00    +0.043 H 
ATOM     84 H84  LIG A   1       9.695  10.263  -0.331  1.00 20.00    +0.118 HD
ATOM     85 H85  LIG A   1      10.518  10.237  -1.800  1.00 20.00    +0.118 HD
ATOM     86 H86  LIG A   1      17.136  16.480   4.247  1.00 20.00    +0.068 H 
ATOM     87 H87  LIG A   1      21.768  14.722  11.064  1.00 20.00    +0.057 H 
ATOM     88 H88  LIG A   1      21.381  16.125  13.175  1.00 20.00    +0.119 HD
ATOM     89 H89  LIG A   1      22.496  14.848  13.108  1.00 20.00    +0.119 HD
ATOM     90 H90  LIG A   1      16.170  13.025   4.059  1.00 20.00    +0.000 H 
ATOM     91 H91  LIG A   1      15.549  14.059   5.374  1.00 20.00    +0.000 H 
ATOM     92 H92  LIG A   1      16.593  12.580   5.715  1.00 20.00    +0.000 H 
ATOM     93 H93  LIG A   1      18.095  14.216   4.034  1.00 20.00    +0.000 H 
ATOM     94 H94  LIG A   1      17.404  15.389   5.271  1.00 20.00    +0.000 H 
ATOM     95 H95  LIG A   1      18.444  13.993   8.805  1.00 20.00    +0.000 H 
ATOM     96 H96  LIG A   1      18.242  15.592   7.971  1.00 20.00    +0.000 H 
ATOM     97 H97  LIG A   1      19.864  14.989   8.359  1.00 20.00    +0.000 H 
ENDROOT
TORSDOF 0
                                                                                                    
ENDMDL
