ROOT
ATOM      1 N1   LIG A   1     -13.538   1.461  -2.111  1.00 20.00    -0.330 NA
ATOM      2 C2   LIG A   1     -12.215   1.791  -2.631  1.00 20.00    -0.008 C 
ATOM      3 C3   LIG A   1     -11.217   0.670  -2.344  1.00 20.00    -0.040 C 
ATOM      4 C4   LIG A   1      -9.829   1.010  -2.896  1.00 20.00    -0.039 C 
ATOM      5 C5   LIG A   1      -8.811  -0.114  -2.683  1.00 20.00    -0.005 C 
ATOM      6 N6   LIG A   1      -8.570  -0.339  -1.258  1.00 20.00    -0.317 NA
ATOM      7 C7   LIG A   1      -7.641  -1.451  -1.044  1.00 20.00    -0.003 C 
ATOM      8 C8   LIG A   1      -7.420  -1.653   0.456  1.00 20.00    -0.023 C 
ATOM      9 C9   LIG A   1      -6.580  -2.893   0.763  1.00 20.00    +0.016 C 
ATOM     10 N10  LIG A   1      -5.213  -2.790   0.272  1.00 20.00    -0.385 NA
ATOM     11 C11  LIG A   1      -4.245  -1.985   0.859  1.00 20.00    +0.034 A 
ATOM     12 C12  LIG A   1      -4.357  -1.433   2.137  1.00 20.00    -0.038 A 
ATOM     13 C13  LIG A   1      -3.312  -0.691   2.709  1.00 20.00    -0.049 A 
ATOM     14 C14  LIG A   1      -2.105  -0.501   2.028  1.00 20.00    +0.017 A 
ATOM     15 C15  LIG A   1      -1.013   0.254   2.638  1.00 20.00    +0.134 A 
ATOM     16 C16  LIG A   1      -0.873   0.990   3.799  1.00 20.00    -0.015 A 
ATOM     17 C17  LIG A   1       0.465   1.456   3.830  1.00 20.00    -0.015 A 
ATOM     18 C18  LIG A   1       1.077   0.984   2.686  1.00 20.00    +0.134 A 
ATOM     19 C19  LIG A   1       2.424   1.084   2.129  1.00 20.00    +0.017 A 
ATOM     20 C20  LIG A   1       3.477   1.602   2.891  1.00 20.00    -0.049 A 
ATOM     21 C21  LIG A   1       4.776   1.691   2.365  1.00 20.00    -0.038 A 
ATOM     22 C22  LIG A   1       5.060   1.297   1.055  1.00 20.00    +0.034 A 
ATOM     23 N23  LIG A   1       6.335   1.292   0.499  1.00 20.00    -0.385 NA
ATOM     24 C24  LIG A   1       7.459   2.013   1.089  1.00 20.00    +0.016 C 
ATOM     25 C25  LIG A   1       8.247   1.117   2.048  1.00 20.00    -0.023 C 
ATOM     26 C26  LIG A   1       8.978  -0.028   1.340  1.00 20.00    -0.003 C 
ATOM     27 N27  LIG A   1      10.088   0.484   0.525  1.00 20.00    -0.317 NA
ATOM     28 C28  LIG A   1      10.717  -0.566  -0.279  1.00 20.00    -0.005 C 
ATOM     29 C29  LIG A   1       9.893  -1.000  -1.499  1.00 20.00    -0.039 C 
ATOM     30 C30  LIG A   1       9.596   0.158  -2.459  1.00 20.00    -0.040 C 
ATOM     31 C31  LIG A   1       8.740  -0.249  -3.660  1.00 20.00    -0.008 C 
ATOM     32 N32  LIG A   1       9.401  -1.204  -4.543  1.00 20.00    -0.330 NA
ATOM     33 C33  LIG A   1       4.008   0.750   0.310  1.00 20.00    -0.038 A 
ATOM     34 C34  LIG A   1       2.710   0.653   0.830  1.00 20.00    -0.049 A 
ATOM     35 O35  LIG A   1       0.173   0.261   1.959  1.00 20.00    -0.456 OA
ATOM     36 C36  LIG A   1      -1.976  -1.074   0.759  1.00 20.00    -0.049 A 
ATOM     37 C37  LIG A   1      -3.025  -1.811   0.192  1.00 20.00    -0.038 A 
ATOM     38 N38  LIG A   1       3.172  -0.726  -0.246  1.00 20.00    -0.328 NA
ATOM     39 C39  LIG A   1       1.813  -0.311  -0.594  1.00 20.00    +0.016 C 
ATOM     40 C40  LIG A   1       1.096   0.419   0.551  1.00 20.00    +0.059 C 
ATOM     41 O41  LIG A   1      -0.176   0.929   0.145  1.00 20.00    -0.378 OA
ATOM     42 C42  LIG A   1      -1.205  -0.057   0.155  1.00 20.00    +0.070 C 
ATOM     43 C43  LIG A   1      -2.517   0.581  -0.291  1.00 20.00    +0.067 C 
ATOM     44 O44  LIG A   1      -3.587  -0.355  -0.222  1.00 20.00    -0.394 OA
ATOM     45 H45  LIG A   1     -13.852   0.581  -2.518  1.00 20.00    +0.118 HD
ATOM     46 H46  LIG A   1     -13.472   1.291  -1.107  1.00 20.00    +0.118 HD
ATOM     47 H47  LIG A   1     -11.876   2.726  -2.172  1.00 20.00    +0.043 H 
ATOM     48 H48  LIG A   1     -12.292   1.965  -3.709  1.00 20.00    +0.043 H 
ATOM     49 H49  LIG A   1     -11.570  -0.265  -2.798  1.00 20.00    +0.028 H 
ATOM     50 H50  LIG A   1     -11.159   0.501  -1.261  1.00 20.00    +0.028 H 
ATOM     51 H51  LIG A   1      -9.908   1.205  -3.974  1.00 20.00    +0.028 H 
ATOM     52 H52  LIG A   1      -9.462   1.936  -2.436  1.00 20.00    +0.028 H 
ATOM     53 H53  LIG A   1      -7.873   0.159  -3.182  1.00 20.00    +0.043 H 
ATOM     54 H54  LIG A   1      -9.185  -1.031  -3.155  1.00 20.00    +0.043 H 
ATOM     55 H55  LIG A   1      -8.184   0.510  -0.842  1.00 20.00    +0.122 HD
ATOM     56 H56  LIG A   1      -6.685  -1.242  -1.538  1.00 20.00    +0.043 H 
ATOM     57 H57  LIG A   1      -8.056  -2.368  -1.478  1.00 20.00    +0.043 H 
ATOM     58 H58  LIG A   1      -6.958  -0.757   0.888  1.00 20.00    +0.030 H 
ATOM     59 H59  LIG A   1      -8.393  -1.774   0.951  1.00 20.00    +0.030 H 
ATOM     60 H60  LIG A   1      -6.590  -3.102   1.839  1.00 20.00    +0.049 H 
ATOM     61 H61  LIG A   1      -7.043  -3.768   0.290  1.00 20.00    +0.049 H 
ATOM     62 H62  LIG A   1      -5.114  -2.891  -0.734  1.00 20.00    +0.160 HD
ATOM     63 H63  LIG A   1      -5.259  -1.568   2.726  1.00 20.00    +0.064 H 
ATOM     64 H64  LIG A   1      -3.458  -0.282   3.705  1.00 20.00    +0.063 H 
ATOM     65 H65  LIG A   1      -1.639   1.166   4.540  1.00 20.00    +0.066 H 
ATOM     66 H66  LIG A   1       0.924   2.060   4.598  1.00 20.00    +0.066 H 
ATOM     67 H67  LIG A   1       3.313   1.928   3.914  1.00 20.00    +0.063 H 
ATOM     68 H68  LIG A   1       5.557   2.073   3.014  1.00 20.00    +0.064 H 
ATOM     69 H69  LIG A   1       6.325   1.336  -0.516  1.00 20.00    +0.160 HD
ATOM     70 H70  LIG A   1       8.113   2.355   0.278  1.00 20.00    +0.049 H 
ATOM     71 H71  LIG A   1       7.125   2.924   1.599  1.00 20.00    +0.049 H 
ATOM     72 H72  LIG A   1       8.972   1.732   2.596  1.00 20.00    +0.030 H 
ATOM     73 H73  LIG A   1       7.576   0.685   2.799  1.00 20.00    +0.030 H 
ATOM     74 H74  LIG A   1       9.377  -0.713   2.098  1.00 20.00    +0.043 H 
ATOM     75 H75  LIG A   1       8.262  -0.594   0.735  1.00 20.00    +0.043 H 
ATOM     76 H76  LIG A   1      10.791   0.878   1.152  1.00 20.00    +0.122 HD
ATOM     77 H77  LIG A   1      11.677  -0.178  -0.640  1.00 20.00    +0.043 H 
ATOM     78 H78  LIG A   1      10.953  -1.439   0.343  1.00 20.00    +0.043 H 
ATOM     79 H79  LIG A   1       8.953  -1.467  -1.182  1.00 20.00    +0.028 H 
ATOM     80 H80  LIG A   1      10.461  -1.777  -2.023  1.00 20.00    +0.028 H 
ATOM     81 H81  LIG A   1      10.540   0.597  -2.809  1.00 20.00    +0.028 H 
ATOM     82 H82  LIG A   1       9.061   0.952  -1.925  1.00 20.00    +0.028 H 
ATOM     83 H83  LIG A   1       7.787  -0.672  -3.320  1.00 20.00    +0.043 H 
ATOM     84 H84  LIG A   1       8.498   0.646  -4.243  1.00 20.00    +0.043 H 
ATOM     85 H85  LIG A   1      10.323  -0.852  -4.797  1.00 20.00    +0.118 HD
ATOM     86 H86  LIG A   1       9.560  -2.080  -4.048  1.00 20.00    +0.118 HD
ATOM     87 H87  LIG A   1       4.191   0.380  -0.696  1.00 20.00    +0.064 H 
ATOM     88 H88  LIG A   1       1.928   0.225   0.206  1.00 20.00    +0.063 H 
ATOM     89 H89  LIG A   1      -1.051  -0.967   0.197  1.00 20.00    +0.063 H 
ATOM     90 H90  LIG A   1      -2.870  -2.259  -0.786  1.00 20.00    +0.064 H 
ATOM     91 H91  LIG A   1       3.730   0.095  -0.012  1.00 20.00    +0.118 HD
ATOM     92 H92  LIG A   1       3.154  -1.308   0.591  1.00 20.00    +0.118 HD
ATOM     93 H93  LIG A   1       1.848   0.337  -1.477  1.00 20.00    +0.045 H 
ATOM     94 H94  LIG A   1       1.244  -1.197  -0.894  1.00 20.00    +0.045 H 
ATOM     95 H95  LIG A   1       1.695   1.285   0.855  1.00 20.00    +0.058 H 
ATOM     96 H96  LIG A   1       0.987  -0.224   1.432  1.00 20.00    +0.058 H 
ATOM     97 H97  LIG A   1      -0.958  -0.886  -0.516  1.00 20.00    +0.059 H 
ATOM     98 H98  LIG A   1      -1.320  -0.467   1.165  1.00 20.00    +0.059 H 
ATOM     99 H99  LIG A   1      -2.432   0.936  -1.324  1.00 20.00    +0.059 H 
ATOM    100 H100 LIG A   1      -2.763   1.452   0.326  1.00 20.00    +0.059 H 
ATOM    101 H101 LIG A   1      -3.782  -0.502   0.719  1.00 20.00    +0.210 HD
ENDROOT
TORSDOF 0
