ROOT
ATOM      1 N1   LIG A   1       5.016   1.502  -1.723  1.00 20.00    -0.330 NA
ATOM      2 C2   LIG A   1       5.932   1.046  -0.686  1.00 20.00    -0.008 C 
ATOM      3 C3   LIG A   1       5.878  -0.472  -0.503  1.00 20.00    -0.040 C 
ATOM      4 C4   LIG A   1       4.498  -1.045  -0.152  1.00 20.00    -0.039 C 
ATOM      5 C5   LIG A   1       3.912  -0.459   1.136  1.00 20.00    -0.005 C 
ATOM      6 N6   LIG A   1       2.721  -1.181   1.600  1.00 20.00    -0.317 NA
ATOM      7 C7   LIG A   1       1.550  -0.924   0.752  1.00 20.00    -0.003 C 
ATOM      8 C8   LIG A   1       0.333  -1.649   1.334  1.00 20.00    -0.023 C 
ATOM      9 C9   LIG A   1      -0.908  -1.484   0.454  1.00 20.00    +0.017 C 
ATOM     10 N10  LIG A   1      -1.381  -0.102   0.508  1.00 20.00    -0.370 NA
ATOM     11 C11  LIG A   1      -2.558   0.122  -0.212  1.00 20.00    +0.126 A 
ATOM     12 C12  LIG A   1      -2.633  -0.083  -1.582  1.00 20.00    -0.019 A 
ATOM     13 C13  LIG A   1      -3.834   0.174  -2.236  1.00 20.00    -0.049 A 
ATOM     14 C14  LIG A   1      -4.931   0.637  -1.505  1.00 20.00    +0.000 A 
ATOM     15 C15  LIG A   1      -6.167   0.912  -2.116  1.00 20.00    -0.053 A 
ATOM     16 C16  LIG A   1      -7.239   1.378  -1.357  1.00 20.00    -0.062 A 
ATOM     17 C17  LIG A   1      -7.078   1.570   0.010  1.00 20.00    -0.060 A 
ATOM     18 C18  LIG A   1      -5.846   1.295   0.613  1.00 20.00    -0.036 A 
ATOM     19 C19  LIG A   1      -4.762   0.830  -0.119  1.00 20.00    +0.073 A 
ATOM     20 N20  LIG A   1      -3.598   0.579   0.509  1.00 20.00    -0.231 NA
ATOM     21 O21  LIG A   1       3.418   1.151  -0.208  1.00 20.00    -0.251 OA
ATOM     22 C22  LIG A   1       2.301   1.022   0.266  1.00 20.00    +0.317 C 
ATOM     23 O23  LIG A   1       1.752   2.020   0.997  1.00 20.00    -0.480 OA
ATOM     24 C24  LIG A   1       1.436  -0.230   0.205  1.00 20.00    +0.094 C 
ATOM     25 N25  LIG A   1       0.004   0.124   0.178  1.00 20.00    -0.306 NA
ATOM     26 C26  LIG A   1      -0.837  -1.064   0.365  1.00 20.00    +0.005 C 
ATOM     27 C27  LIG A   1      -2.334  -0.725   0.314  1.00 20.00    +0.003 C 
ATOM     28 S28  LIG A   1      -2.834  -0.071  -1.309  1.00 20.00    -0.178 SA
ATOM     29 H29  LIG A   1       5.251   1.056  -2.609  1.00 20.00    +0.118 HD
ATOM     30 H30  LIG A   1       5.135   2.504  -1.866  1.00 20.00    +0.118 HD
ATOM     31 H31  LIG A   1       6.953   1.337  -0.958  1.00 20.00    +0.043 H 
ATOM     32 H32  LIG A   1       5.697   1.554   0.255  1.00 20.00    +0.043 H 
ATOM     33 H33  LIG A   1       6.231  -0.958  -1.421  1.00 20.00    +0.028 H 
ATOM     34 H34  LIG A   1       6.590  -0.751   0.285  1.00 20.00    +0.028 H 
ATOM     35 H35  LIG A   1       3.815  -0.882  -0.993  1.00 20.00    +0.028 H 
ATOM     36 H36  LIG A   1       4.603  -2.132  -0.043  1.00 20.00    +0.028 H 
ATOM     37 H37  LIG A   1       4.667  -0.536   1.927  1.00 20.00    +0.043 H 
ATOM     38 H38  LIG A   1       3.685   0.607   1.021  1.00 20.00    +0.043 H 
ATOM     39 H39  LIG A   1       2.506  -0.864   2.546  1.00 20.00    +0.122 HD
ATOM     40 H40  LIG A   1       1.353   0.153   0.699  1.00 20.00    +0.043 H 
ATOM     41 H41  LIG A   1       1.726  -1.290  -0.265  1.00 20.00    +0.043 H 
ATOM     42 H42  LIG A   1       0.556  -2.721   1.417  1.00 20.00    +0.030 H 
ATOM     43 H43  LIG A   1       0.124  -1.284   2.347  1.00 20.00    +0.030 H 
ATOM     44 H44  LIG A   1      -0.666  -1.784  -0.572  1.00 20.00    +0.049 H 
ATOM     45 H45  LIG A   1      -1.692  -2.157   0.825  1.00 20.00    +0.049 H 
ATOM     46 H46  LIG A   1      -1.642   0.159   1.460  1.00 20.00    +0.162 HD
ATOM     47 H47  LIG A   1      -1.768  -0.416  -2.142  1.00 20.00    +0.066 H 
ATOM     48 H48  LIG A   1      -3.902   0.019  -3.309  1.00 20.00    +0.063 H 
ATOM     49 H49  LIG A   1      -6.299   0.766  -3.186  1.00 20.00    +0.063 H 
ATOM     50 H50  LIG A   1      -8.193   1.590  -1.831  1.00 20.00    +0.062 H 
ATOM     51 H51  LIG A   1      -7.906   1.934   0.613  1.00 20.00    +0.062 H 
ATOM     52 H52  LIG A   1      -5.728   1.449   1.683  1.00 20.00    +0.065 H 
ATOM     53 H53  LIG A   1       2.417   2.738   0.939  1.00 20.00    +0.296 HD
ATOM     54 H54  LIG A   1       1.694  -0.777  -0.708  1.00 20.00    +0.055 H 
ATOM     55 H55  LIG A   1       1.681  -0.837   1.083  1.00 20.00    +0.055 H 
ATOM     56 H56  LIG A   1      -0.166   0.804   0.925  1.00 20.00    +0.123 HD
ATOM     57 H57  LIG A   1      -0.606  -1.814  -0.401  1.00 20.00    +0.044 H 
ATOM     58 H58  LIG A   1      -0.622  -1.515   1.341  1.00 20.00    +0.044 H 
ATOM     59 H59  LIG A   1      -2.926  -1.622   0.519  1.00 20.00    +0.039 H 
ATOM     60 H60  LIG A   1      -2.581   0.019   1.078  1.00 20.00    +0.039 H 
ATOM     61 H61  LIG A   1      -1.797   0.777  -1.424  1.00 20.00    +0.102 HD
ENDROOT
TORSDOF 0
