MODEL 1
REMARK VINA RESULT:    -9.940      0.000      0.000
REMARK INTER + INTRA:          -9.940
REMARK INTER:                  -9.940
REMARK INTRA:                   0.000
REMARK UNBOUND:                 0.000
ROOT
ATOM      1 N1   LIG A   1      18.981  10.531   6.274  1.00 20.00    -0.330 NA
ATOM      2 C2   LIG A   1      18.486  11.361   7.367  1.00 20.00    -0.008 C 
ATOM      3 C3   LIG A   1      18.394  12.827   6.945  1.00 20.00    -0.040 C 
ATOM      4 C4   LIG A   1      17.866  13.699   8.089  1.00 20.00    -0.039 C 
ATOM      5 C5   LIG A   1      17.701  15.169   7.690  1.00 20.00    -0.005 C 
ATOM      6 N6   LIG A   1      18.993  15.771   7.363  1.00 20.00    -0.317 NA
ATOM      7 C7   LIG A   1      18.838  17.160   6.925  1.00 20.00    -0.003 C 
ATOM      8 C8   LIG A   1      20.210  17.749   6.592  1.00 20.00    -0.023 C 
ATOM      9 C9   LIG A   1      20.115  19.148   5.982  1.00 20.00    +0.016 C 
ATOM     10 N10  LIG A   1      19.583  20.137   6.909  1.00 20.00    -0.385 NA
ATOM     11 C11  LIG A   1      20.303  20.649   7.981  1.00 20.00    +0.034 A 
ATOM     12 C12  LIG A   1      21.687  20.529   8.123  1.00 20.00    -0.038 A 
ATOM     13 C13  LIG A   1      22.371  21.135   9.189  1.00 20.00    -0.049 A 
ATOM     14 C14  LIG A   1      21.691  21.908  10.136  1.00 20.00    +0.017 A 
ATOM     15 C15  LIG A   1      22.411  22.554  11.230  1.00 20.00    +0.134 A 
ATOM     16 C16  LIG A   1      23.716  22.526  11.682  1.00 20.00    -0.015 A 
ATOM     17 C17  LIG A   1      23.786  23.409  12.788  1.00 20.00    -0.015 A 
ATOM     18 C18  LIG A   1      22.521  23.932  12.959  1.00 20.00    +0.134 A 
ATOM     19 C19  LIG A   1      21.926  24.893  13.886  1.00 20.00    +0.017 A 
ATOM     20 C20  LIG A   1      22.731  25.659  14.737  1.00 20.00    -0.049 A 
ATOM     21 C21  LIG A   1      22.166  26.592  15.622  1.00 20.00    -0.038 A 
ATOM     22 C22  LIG A   1      20.783  26.768  15.710  1.00 20.00    +0.034 A 
ATOM     23 N23  LIG A   1      20.166  27.723  16.511  1.00 20.00    -0.385 NA
ATOM     24 C24  LIG A   1      20.856  28.409  17.599  1.00 20.00    +0.016 C 
ATOM     25 C25  LIG A   1      21.484  29.719  17.116  1.00 20.00    -0.023 C 
ATOM     26 C26  LIG A   1      20.446  30.775  16.720  1.00 20.00    -0.003 C 
ATOM     27 N27  LIG A   1      19.731  31.275  17.902  1.00 20.00    -0.317 NA
ATOM     28 C28  LIG A   1      18.634  32.177  17.547  1.00 20.00    -0.005 C 
ATOM     29 C29  LIG A   1      17.398  31.468  16.978  1.00 20.00    -0.039 C 
ATOM     30 C30  LIG A   1      16.808  30.433  17.944  1.00 20.00    -0.040 C 
ATOM     31 C31  LIG A   1      15.600  29.687  17.376  1.00 20.00    -0.008 C 
ATOM     32 N32  LIG A   1      14.450  30.551  17.130  1.00 20.00    -0.330 NA
ATOM     33 C33  LIG A   1      19.987  26.022  14.832  1.00 20.00    -0.038 A 
ATOM     34 C34  LIG A   1      20.543  25.093  13.942  1.00 20.00    -0.049 A 
ATOM     35 O35  LIG A   1      21.684  23.404  12.016  1.00 20.00    -0.456 OA
ATOM     36 C36  LIG A   1      20.308  22.055   9.985  1.00 20.00    -0.049 A 
ATOM     37 C37  LIG A   1      19.631  21.444   8.920  1.00 20.00    -0.038 A 
ATOM     38 N38  LIG A   1      19.107  25.970  13.280  1.00 20.00    -0.328 NA
ATOM     39 C39  LIG A   1      18.972  24.554  12.941  1.00 20.00    +0.016 C 
ATOM     40 C40  LIG A   1      20.316  23.810  12.922  1.00 20.00    +0.059 C 
ATOM     41 O41  LIG A   1      20.146  22.406  12.719  1.00 20.00    -0.378 OA
ATOM     42 C42  LIG A   1      19.954  22.055  11.351  1.00 20.00    +0.070 C 
ATOM     43 C43  LIG A   1      19.783  20.543  11.239  1.00 20.00    +0.067 C 
ATOM     44 O44  LIG A   1      19.664  20.145   9.878  1.00 20.00    -0.394 OA
ATOM     45 H45  LIG A   1      18.371  10.639   5.464  1.00 20.00    +0.118 HD
ATOM     46 H46  LIG A   1      19.895  10.874   5.978  1.00 20.00    +0.118 HD
ATOM     47 H47  LIG A   1      19.158  11.256   8.226  1.00 20.00    +0.043 H 
ATOM     48 H48  LIG A   1      17.502  10.991   7.675  1.00 20.00    +0.043 H 
ATOM     49 H49  LIG A   1      17.727  12.921   6.079  1.00 20.00    +0.028 H 
ATOM     50 H50  LIG A   1      19.384  13.179   6.630  1.00 20.00    +0.028 H 
ATOM     51 H51  LIG A   1      16.889  13.317   8.412  1.00 20.00    +0.028 H 
ATOM     52 H52  LIG A   1      18.535  13.623   8.955  1.00 20.00    +0.028 H 
ATOM     53 H53  LIG A   1      17.236  15.711   8.522  1.00 20.00    +0.043 H 
ATOM     54 H54  LIG A   1      17.023  15.233   6.829  1.00 20.00    +0.043 H 
ATOM     55 H55  LIG A   1      19.598  15.741   8.185  1.00 20.00    +0.122 HD
ATOM     56 H56  LIG A   1      18.359  17.751   7.714  1.00 20.00    +0.043 H 
ATOM     57 H57  LIG A   1      18.199  17.197   6.035  1.00 20.00    +0.043 H 
ATOM     58 H58  LIG A   1      20.838  17.761   7.491  1.00 20.00    +0.030 H 
ATOM     59 H59  LIG A   1      20.715  17.098   5.865  1.00 20.00    +0.030 H 
ATOM     60 H60  LIG A   1      21.092  19.463   5.599  1.00 20.00    +0.049 H 
ATOM     61 H61  LIG A   1      19.453  19.116   5.108  1.00 20.00    +0.049 H 
ATOM     62 H62  LIG A   1      18.583  20.070   7.076  1.00 20.00    +0.160 HD
ATOM     63 H63  LIG A   1      22.274  19.964   7.405  1.00 20.00    +0.064 H 
ATOM     64 H64  LIG A   1      23.447  21.003   9.249  1.00 20.00    +0.063 H 
ATOM     65 H65  LIG A   1      24.525  21.945  11.263  1.00 20.00    +0.066 H 
ATOM     66 H66  LIG A   1      24.658  23.636  13.383  1.00 20.00    +0.066 H 
ATOM     67 H67  LIG A   1      23.812  25.560  14.715  1.00 20.00    +0.063 H 
ATOM     68 H68  LIG A   1      22.843  27.177  16.235  1.00 20.00    +0.064 H 
ATOM     69 H69  LIG A   1      19.204  27.489  16.737  1.00 20.00    +0.160 HD
ATOM     70 H70  LIG A   1      20.128  28.617  18.392  1.00 20.00    +0.049 H 
ATOM     71 H71  LIG A   1      21.614  27.765  18.060  1.00 20.00    +0.049 H 
ATOM     72 H72  LIG A   1      22.130  30.118  17.908  1.00 20.00    +0.030 H 
ATOM     73 H73  LIG A   1      22.131  29.531  16.252  1.00 20.00    +0.030 H 
ATOM     74 H74  LIG A   1      20.963  31.611  16.235  1.00 20.00    +0.043 H 
ATOM     75 H75  LIG A   1      19.758  30.346  15.984  1.00 20.00    +0.043 H 
ATOM     76 H76  LIG A   1      20.395  31.785  18.487  1.00 20.00    +0.122 HD
ATOM     77 H77  LIG A   1      18.331  32.707  18.458  1.00 20.00    +0.043 H 
ATOM     78 H78  LIG A   1      18.980  32.947  16.845  1.00 20.00    +0.043 H 
ATOM     79 H79  LIG A   1      17.636  30.987  16.022  1.00 20.00    +0.028 H 
ATOM     80 H80  LIG A   1      16.647  32.235  16.757  1.00 20.00    +0.028 H 
ATOM     81 H81  LIG A   1      16.531  30.925  18.885  1.00 20.00    +0.028 H 
ATOM     82 H82  LIG A   1      17.571  29.686  18.194  1.00 20.00    +0.028 H 
ATOM     83 H83  LIG A   1      15.873  29.177  16.444  1.00 20.00    +0.043 H 
ATOM     84 H84  LIG A   1      15.298  28.908  18.084  1.00 20.00    +0.043 H 
ATOM     85 H85  LIG A   1      14.243  31.089  17.971  1.00 20.00    +0.118 HD
ATOM     86 H86  LIG A   1      14.678  31.233  16.408  1.00 20.00    +0.118 HD
ATOM     87 H87  LIG A   1      18.909  26.163  14.825  1.00 20.00    +0.064 H 
ATOM     88 H88  LIG A   1      19.878  24.535  13.286  1.00 20.00    +0.063 H 
ATOM     89 H89  LIG A   1      19.738  22.659  10.687  1.00 20.00    +0.063 H 
ATOM     90 H90  LIG A   1      18.561  21.607   8.829  1.00 20.00    +0.064 H 
ATOM     91 H91  LIG A   1      19.518  26.061  14.209  1.00 20.00    +0.118 HD
ATOM     92 H92  LIG A   1      19.754  26.422  12.635  1.00 20.00    +0.118 HD
ATOM     93 H93  LIG A   1      18.297  24.073  13.659  1.00 20.00    +0.045 H 
ATOM     94 H94  LIG A   1      18.481  24.473  11.966  1.00 20.00    +0.045 H 
ATOM     95 H95  LIG A   1      20.804  23.926  13.896  1.00 20.00    +0.058 H 
ATOM     96 H96  LIG A   1      20.995  24.226  12.169  1.00 20.00    +0.058 H 
ATOM     97 H97  LIG A   1      19.069  22.552  10.941  1.00 20.00    +0.059 H 
ATOM     98 H98  LIG A   1      20.820  22.372  10.760  1.00 20.00    +0.059 H 
ATOM     99 H99  LIG A   1      18.881  20.225  11.774  1.00 20.00    +0.059 H 
ATOM    100 H100 LIG A   1      20.627  20.015  11.694  1.00 20.00    +0.059 H 
ATOM    101 H101 LIG A   1      20.541  20.246   9.470  1.00 20.00    +0.210 HD
ENDROOT
TORSDOF 0
                                                                                                        
ENDMDL
MODEL 2
REMARK VINA RESULT:    -9.836      2.620     13.691
REMARK INTER + INTRA:          -9.836
REMARK INTER:                  -9.836
REMARK INTRA:                   0.000
REMARK UNBOUND:                 0.000
ROOT
ATOM      1 N1   LIG A   1      22.624  31.572  17.192  1.00 20.00    -0.330 NA
ATOM      2 C2   LIG A   1      21.571  30.615  16.865  1.00 20.00    -0.008 C 
ATOM      3 C3   LIG A   1      22.116  29.188  16.838  1.00 20.00    -0.040 C 
ATOM      4 C4   LIG A   1      21.012  28.180  16.504  1.00 20.00    -0.039 C 
ATOM      5 C5   LIG A   1      21.502  26.729  16.525  1.00 20.00    -0.005 C 
ATOM      6 N6   LIG A   1      22.505  26.500  15.486  1.00 20.00    -0.317 NA
ATOM      7 C7   LIG A   1      23.021  25.130  15.536  1.00 20.00    -0.003 C 
ATOM      8 C8   LIG A   1      24.066  24.935  14.437  1.00 20.00    -0.023 C 
ATOM      9 C9   LIG A   1      24.760  23.576  14.522  1.00 20.00    +0.016 C 
ATOM     10 N10  LIG A   1      23.858  22.460  14.276  1.00 20.00    -0.385 NA
ATOM     11 C11  LIG A   1      23.366  22.133  13.019  1.00 20.00    +0.034 A 
ATOM     12 C12  LIG A   1      23.900  22.614  11.821  1.00 20.00    -0.038 A 
ATOM     13 C13  LIG A   1      23.410  22.188  10.577  1.00 20.00    -0.049 A 
ATOM     14 C14  LIG A   1      22.384  21.241  10.491  1.00 20.00    +0.017 A 
ATOM     15 C15  LIG A   1      21.894  20.785   9.193  1.00 20.00    +0.134 A 
ATOM     16 C16  LIG A   1      22.137  21.149   7.882  1.00 20.00    -0.015 A 
ATOM     17 C17  LIG A   1      21.357  20.291   7.067  1.00 20.00    -0.015 A 
ATOM     18 C18  LIG A   1      20.674  19.446   7.919  1.00 20.00    +0.134 A 
ATOM     19 C19  LIG A   1      19.737  18.340   7.732  1.00 20.00    +0.017 A 
ATOM     20 C20  LIG A   1      19.516  17.797   6.462  1.00 20.00    -0.049 A 
ATOM     21 C21  LIG A   1      18.624  16.728   6.277  1.00 20.00    -0.038 A 
ATOM     22 C22  LIG A   1      17.903  16.188   7.344  1.00 20.00    +0.034 A 
ATOM     23 N23  LIG A   1      17.062  15.085   7.241  1.00 20.00    -0.385 NA
ATOM     24 C24  LIG A   1      16.568  14.583   5.962  1.00 20.00    +0.016 C 
ATOM     25 C25  LIG A   1      17.492  13.498   5.402  1.00 20.00    -0.023 C 
ATOM     26 C26  LIG A   1      17.490  12.214   6.237  1.00 20.00    -0.003 C 
ATOM     27 N27  LIG A   1      16.204  11.515   6.120  1.00 20.00    -0.317 NA
ATOM     28 C28  LIG A   1      16.115  10.361   7.018  1.00 20.00    -0.005 C 
ATOM     29 C29  LIG A   1      15.892  10.729   8.491  1.00 20.00    -0.039 C 
ATOM     30 C30  LIG A   1      14.615  11.548   8.714  1.00 20.00    -0.040 C 
ATOM     31 C31  LIG A   1      14.399  11.958  10.172  1.00 20.00    -0.008 C 
ATOM     32 N32  LIG A   1      14.184  10.825  11.065  1.00 20.00    -0.330 NA
ATOM     33 C33  LIG A   1      18.154  16.715   8.617  1.00 20.00    -0.038 A 
ATOM     34 C34  LIG A   1      19.046  17.779   8.810  1.00 20.00    -0.049 A 
ATOM     35 O35  LIG A   1      20.996  19.754   9.211  1.00 20.00    -0.456 OA
ATOM     36 C36  LIG A   1      21.864  20.734  11.687  1.00 20.00    -0.049 A 
ATOM     37 C37  LIG A   1      22.355  21.167  12.926  1.00 20.00    -0.038 A 
ATOM     38 N38  LIG A   1      19.052  16.566  10.153  1.00 20.00    -0.328 NA
ATOM     39 C39  LIG A   1      19.059  17.903  10.746  1.00 20.00    +0.016 C 
ATOM     40 C40  LIG A   1      19.614  18.978   9.799  1.00 20.00    +0.059 C 
ATOM     41 O41  LIG A   1      19.488  20.291  10.350  1.00 20.00    -0.378 OA
ATOM     42 C42  LIG A   1      20.517  20.609  11.284  1.00 20.00    +0.070 C 
ATOM     43 C43  LIG A   1      20.296  22.023  11.813  1.00 20.00    +0.067 C 
ATOM     44 O44  LIG A   1      21.347  22.406  12.693  1.00 20.00    -0.394 OA
ATOM     45 H45  LIG A   1      23.040  31.324  18.089  1.00 20.00    +0.118 HD
ATOM     46 H46  LIG A   1      23.376  31.491  16.508  1.00 20.00    +0.118 HD
ATOM     47 H47  LIG A   1      21.144  30.876  15.891  1.00 20.00    +0.043 H 
ATOM     48 H48  LIG A   1      20.771  30.703  17.607  1.00 20.00    +0.043 H 
ATOM     49 H49  LIG A   1      22.551  28.939  17.815  1.00 20.00    +0.028 H 
ATOM     50 H50  LIG A   1      22.924  29.119  16.098  1.00 20.00    +0.028 H 
ATOM     51 H51  LIG A   1      20.198  28.281  17.235  1.00 20.00    +0.028 H 
ATOM     52 H52  LIG A   1      20.581  28.412  15.522  1.00 20.00    +0.028 H 
ATOM     53 H53  LIG A   1      20.644  26.064  16.370  1.00 20.00    +0.043 H 
ATOM     54 H54  LIG A   1      21.921  26.507  17.514  1.00 20.00    +0.043 H 
ATOM     55 H55  LIG A   1      22.088  26.672  14.569  1.00 20.00    +0.122 HD
ATOM     56 H56  LIG A   1      22.201  24.415  15.404  1.00 20.00    +0.043 H 
ATOM     57 H57  LIG A   1      23.481  24.945  16.514  1.00 20.00    +0.043 H 
ATOM     58 H58  LIG A   1      23.601  25.070  13.453  1.00 20.00    +0.030 H 
ATOM     59 H59  LIG A   1      24.836  25.713  14.529  1.00 20.00    +0.030 H 
ATOM     60 H60  LIG A   1      25.615  23.541  13.836  1.00 20.00    +0.049 H 
ATOM     61 H61  LIG A   1      25.185  23.451  15.526  1.00 20.00    +0.049 H 
ATOM     62 H62  LIG A   1      23.218  22.255  15.038  1.00 20.00    +0.160 HD
ATOM     63 H63  LIG A   1      24.715  23.332  11.822  1.00 20.00    +0.064 H 
ATOM     64 H64  LIG A   1      23.861  22.600   9.679  1.00 20.00    +0.063 H 
ATOM     65 H65  LIG A   1      22.801  21.933   7.550  1.00 20.00    +0.066 H 
ATOM     66 H66  LIG A   1      21.305  20.290   5.989  1.00 20.00    +0.066 H 
ATOM     67 H67  LIG A   1      20.046  18.181   5.595  1.00 20.00    +0.063 H 
ATOM     68 H68  LIG A   1      18.517  16.329   5.273  1.00 20.00    +0.064 H 
ATOM     69 H69  LIG A   1      16.362  15.050   7.977  1.00 20.00    +0.160 HD
ATOM     70 H70  LIG A   1      15.564  14.171   6.119  1.00 20.00    +0.049 H 
ATOM     71 H71  LIG A   1      16.441  15.394   5.237  1.00 20.00    +0.049 H 
ATOM     72 H72  LIG A   1      17.188  13.268   4.373  1.00 20.00    +0.030 H 
ATOM     73 H73  LIG A   1      18.521  13.871   5.345  1.00 20.00    +0.030 H 
ATOM     74 H74  LIG A   1      18.289  11.556   5.873  1.00 20.00    +0.043 H 
ATOM     75 H75  LIG A   1      17.722  12.460   7.278  1.00 20.00    +0.043 H 
ATOM     76 H76  LIG A   1      16.103  11.187   5.159  1.00 20.00    +0.122 HD
ATOM     77 H77  LIG A   1      15.266   9.750   6.690  1.00 20.00    +0.043 H 
ATOM     78 H78  LIG A   1      17.006   9.728   6.921  1.00 20.00    +0.043 H 
ATOM     79 H79  LIG A   1      16.755  11.278   8.886  1.00 20.00    +0.028 H 
ATOM     80 H80  LIG A   1      15.835   9.795   9.061  1.00 20.00    +0.028 H 
ATOM     81 H81  LIG A   1      13.746  10.978   8.357  1.00 20.00    +0.028 H 
ATOM     82 H82  LIG A   1      14.655  12.464   8.114  1.00 20.00    +0.028 H 
ATOM     83 H83  LIG A   1      15.254  12.543  10.531  1.00 20.00    +0.043 H 
ATOM     84 H84  LIG A   1      13.522  12.612  10.231  1.00 20.00    +0.043 H 
ATOM     85 H85  LIG A   1      13.444  10.232  10.692  1.00 20.00    +0.118 HD
ATOM     86 H86  LIG A   1      15.021  10.245  11.096  1.00 20.00    +0.118 HD
ATOM     87 H87  LIG A   1      17.657  16.293   9.487  1.00 20.00    +0.064 H 
ATOM     88 H88  LIG A   1      19.200  18.155   9.820  1.00 20.00    +0.063 H 
ATOM     89 H89  LIG A   1      21.076  19.984  11.671  1.00 20.00    +0.063 H 
ATOM     90 H90  LIG A   1      21.938  20.727  13.828  1.00 20.00    +0.064 H 
ATOM     91 H91  LIG A   1      18.468  16.567   9.317  1.00 20.00    +0.118 HD
ATOM     92 H92  LIG A   1      19.992  16.318   9.845  1.00 20.00    +0.118 HD
ATOM     93 H93  LIG A   1      18.039  18.171  11.046  1.00 20.00    +0.045 H 
ATOM     94 H94  LIG A   1      19.645  17.872  11.670  1.00 20.00    +0.045 H 
ATOM     95 H95  LIG A   1      19.032  18.973   8.871  1.00 20.00    +0.058 H 
ATOM     96 H96  LIG A   1      20.657  18.775   9.528  1.00 20.00    +0.058 H 
ATOM     97 H97  LIG A   1      20.515  19.904  12.121  1.00 20.00    +0.059 H 
ATOM     98 H98  LIG A   1      21.496  20.547  10.796  1.00 20.00    +0.059 H 
ATOM     99 H99  LIG A   1      19.348  22.077  12.359  1.00 20.00    +0.059 H 
ATOM    100 H100 LIG A   1      20.234  22.746  10.993  1.00 20.00    +0.059 H 
ATOM    101 H101 LIG A   1      22.140  22.551  12.150  1.00 20.00    +0.210 HD
ENDROOT
TORSDOF 0
                                                                                                        
ENDMDL
MODEL 3
REMARK VINA RESULT:    -9.551      8.053     13.528
REMARK INTER + INTRA:          -9.551
REMARK INTER:                  -9.551
REMARK INTRA:                   0.000
REMARK UNBOUND:                 0.000
ROOT
ATOM      1 N1   LIG A   1       5.920  11.138  -4.317  1.00 20.00    -0.330 NA
ATOM      2 C2   LIG A   1       6.521  12.264  -3.608  1.00 20.00    -0.008 C 
ATOM      3 C3   LIG A   1       8.035  12.097  -3.496  1.00 20.00    -0.040 C 
ATOM      4 C4   LIG A   1       8.670  13.281  -2.760  1.00 20.00    -0.039 C 
ATOM      5 C5   LIG A   1      10.196  13.184  -2.679  1.00 20.00    -0.005 C 
ATOM      6 N6   LIG A   1      10.606  12.025  -1.886  1.00 20.00    -0.317 NA
ATOM      7 C7   LIG A   1      12.064  11.892  -1.851  1.00 20.00    -0.003 C 
ATOM      8 C8   LIG A   1      12.447  10.669  -1.017  1.00 20.00    -0.023 C 
ATOM      9 C9   LIG A   1      13.948  10.378  -1.059  1.00 20.00    +0.016 C 
ATOM     10 N10  LIG A   1      14.749  11.424  -0.440  1.00 20.00    -0.385 NA
ATOM     11 C11  LIG A   1      14.823  11.622   0.933  1.00 20.00    +0.034 A 
ATOM     12 C12  LIG A   1      14.410  10.684   1.882  1.00 20.00    -0.038 A 
ATOM     13 C13  LIG A   1      14.582  10.909   3.257  1.00 20.00    -0.049 A 
ATOM     14 C14  LIG A   1      15.201  12.072   3.727  1.00 20.00    +0.017 A 
ATOM     15 C15  LIG A   1      15.396  12.289   5.158  1.00 20.00    +0.134 A 
ATOM     16 C16  LIG A   1      15.006  11.620   6.303  1.00 20.00    -0.015 A 
ATOM     17 C17  LIG A   1      15.546  12.336   7.400  1.00 20.00    -0.015 A 
ATOM     18 C18  LIG A   1      16.239  13.408   6.873  1.00 20.00    +0.134 A 
ATOM     19 C19  LIG A   1      17.025  14.500   7.443  1.00 20.00    +0.017 A 
ATOM     20 C20  LIG A   1      17.380  14.495   8.797  1.00 20.00    -0.049 A 
ATOM     21 C21  LIG A   1      18.144  15.537   9.348  1.00 20.00    -0.038 A 
ATOM     22 C22  LIG A   1      18.551  16.628   8.577  1.00 20.00    +0.034 A 
ATOM     23 N23  LIG A   1      19.368  17.653   9.043  1.00 20.00    -0.385 NA
ATOM     24 C24  LIG A   1      19.609  17.890  10.464  1.00 20.00    +0.016 C 
ATOM     25 C25  LIG A   1      20.855  17.143  10.944  1.00 20.00    -0.023 C 
ATOM     26 C26  LIG A   1      22.154  17.683  10.337  1.00 20.00    -0.003 C 
ATOM     27 N27  LIG A   1      22.460  19.021  10.862  1.00 20.00    -0.317 NA
ATOM     28 C28  LIG A   1      23.615  19.627  10.196  1.00 20.00    -0.005 C 
ATOM     29 C29  LIG A   1      23.322  20.143   8.780  1.00 20.00    -0.039 C 
ATOM     30 C30  LIG A   1      22.206  21.193   8.748  1.00 20.00    -0.040 C 
ATOM     31 C31  LIG A   1      21.873  21.687   7.339  1.00 20.00    -0.008 C 
ATOM     32 N32  LIG A   1      22.973  22.405   6.704  1.00 20.00    -0.330 NA
ATOM     33 C33  LIG A   1      18.219  16.610   7.217  1.00 20.00    -0.038 A 
ATOM     34 C34  LIG A   1      17.461  15.571   6.658  1.00 20.00    -0.049 A 
ATOM     35 O35  LIG A   1      16.138  13.382   5.510  1.00 20.00    -0.456 OA
ATOM     36 C36  LIG A   1      15.641  13.003   2.781  1.00 20.00    -0.049 A 
ATOM     37 C37  LIG A   1      15.463  12.774   1.409  1.00 20.00    -0.038 A 
ATOM     38 N38  LIG A   1      18.735  16.224   5.552  1.00 20.00    -0.328 NA
ATOM     39 C39  LIG A   1      17.505  16.052   4.780  1.00 20.00    +0.016 C 
ATOM     40 C40  LIG A   1      16.550  15.017   5.393  1.00 20.00    +0.059 C 
ATOM     41 O41  LIG A   1      15.303  14.963   4.697  1.00 20.00    -0.378 OA
ATOM     42 C42  LIG A   1      15.358  14.180   3.508  1.00 20.00    +0.070 C 
ATOM     43 C43  LIG A   1      13.986  14.183   2.840  1.00 20.00    +0.067 C 
ATOM     44 O44  LIG A   1      13.980  13.348   1.687  1.00 20.00    -0.394 OA
ATOM     45 H45  LIG A   1       6.345  11.053  -5.239  1.00 20.00    +0.118 HD
ATOM     46 H46  LIG A   1       6.148  10.272  -3.828  1.00 20.00    +0.118 HD
ATOM     47 H47  LIG A   1       6.074  12.335  -2.610  1.00 20.00    +0.043 H 
ATOM     48 H48  LIG A   1       6.278  13.188  -4.141  1.00 20.00    +0.043 H 
ATOM     49 H49  LIG A   1       8.473  12.016  -4.500  1.00 20.00    +0.028 H 
ATOM     50 H50  LIG A   1       8.262  11.162  -2.969  1.00 20.00    +0.028 H 
ATOM     51 H51  LIG A   1       8.410  14.212  -3.282  1.00 20.00    +0.028 H 
ATOM     52 H52  LIG A   1       8.248  13.361  -1.750  1.00 20.00    +0.028 H 
ATOM     53 H53  LIG A   1      10.585  14.104  -2.225  1.00 20.00    +0.043 H 
ATOM     54 H54  LIG A   1      10.606  13.115  -3.694  1.00 20.00    +0.043 H 
ATOM     55 H55  LIG A   1      10.252  12.125  -0.934  1.00 20.00    +0.122 HD
ATOM     56 H56  LIG A   1      12.513  12.795  -1.421  1.00 20.00    +0.043 H 
ATOM     57 H57  LIG A   1      12.449  11.773  -2.871  1.00 20.00    +0.043 H 
ATOM     58 H58  LIG A   1      12.110  10.804   0.018  1.00 20.00    +0.030 H 
ATOM     59 H59  LIG A   1      11.921   9.787  -1.406  1.00 20.00    +0.030 H 
ATOM     60 H60  LIG A   1      14.159   9.405  -0.600  1.00 20.00    +0.049 H 
ATOM     61 H61  LIG A   1      14.267  10.284  -2.105  1.00 20.00    +0.049 H 
ATOM     62 H62  LIG A   1      14.832  12.276  -0.987  1.00 20.00    +0.160 HD
ATOM     63 H63  LIG A   1      13.947   9.751   1.579  1.00 20.00    +0.064 H 
ATOM     64 H64  LIG A   1      14.237  10.145   3.949  1.00 20.00    +0.063 H 
ATOM     65 H65  LIG A   1      14.409  10.721   6.345  1.00 20.00    +0.066 H 
ATOM     66 H66  LIG A   1      15.444  12.093   8.447  1.00 20.00    +0.066 H 
ATOM     67 H67  LIG A   1      17.087  13.674   9.444  1.00 20.00    +0.063 H 
ATOM     68 H68  LIG A   1      18.414  15.463  10.396  1.00 20.00    +0.064 H 
ATOM     69 H69  LIG A   1      19.270  18.512   8.509  1.00 20.00    +0.160 HD
ATOM     70 H70  LIG A   1      19.740  18.968  10.616  1.00 20.00    +0.049 H 
ATOM     71 H71  LIG A   1      18.736  17.614  11.067  1.00 20.00    +0.049 H 
ATOM     72 H72  LIG A   1      20.908  17.205  12.039  1.00 20.00    +0.030 H 
ATOM     73 H73  LIG A   1      20.776  16.078  10.697  1.00 20.00    +0.030 H 
ATOM     74 H74  LIG A   1      22.973  17.001  10.595  1.00 20.00    +0.043 H 
ATOM     75 H75  LIG A   1      22.067  17.689   9.246  1.00 20.00    +0.043 H 
ATOM     76 H76  LIG A   1      22.668  18.935  11.858  1.00 20.00    +0.122 HD
ATOM     77 H77  LIG A   1      23.940  20.479  10.805  1.00 20.00    +0.043 H 
ATOM     78 H78  LIG A   1      24.459  18.926  10.172  1.00 20.00    +0.043 H 
ATOM     79 H79  LIG A   1      23.066  19.311   8.113  1.00 20.00    +0.028 H 
ATOM     80 H80  LIG A   1      24.249  20.577   8.388  1.00 20.00    +0.028 H 
ATOM     81 H81  LIG A   1      22.484  22.045   9.383  1.00 20.00    +0.028 H 
ATOM     82 H82  LIG A   1      21.289  20.770   9.175  1.00 20.00    +0.028 H 
ATOM     83 H83  LIG A   1      21.577  20.845   6.702  1.00 20.00    +0.043 H 
ATOM     84 H84  LIG A   1      21.011  22.361   7.393  1.00 20.00    +0.043 H 
ATOM     85 H85  LIG A   1      23.307  23.139   7.328  1.00 20.00    +0.118 HD
ATOM     86 H86  LIG A   1      23.761  21.775   6.563  1.00 20.00    +0.118 HD
ATOM     87 H87  LIG A   1      18.559  17.411   6.565  1.00 20.00    +0.064 H 
ATOM     88 H88  LIG A   1      17.227  15.609   5.596  1.00 20.00    +0.063 H 
ATOM     89 H89  LIG A   1      16.142  13.915   3.097  1.00 20.00    +0.063 H 
ATOM     90 H90  LIG A   1      15.844  13.514   0.710  1.00 20.00    +0.064 H 
ATOM     91 H91  LIG A   1      18.506  16.542   6.493  1.00 20.00    +0.118 HD
ATOM     92 H92  LIG A   1      19.206  15.326   5.660  1.00 20.00    +0.118 HD
ATOM     93 H93  LIG A   1      16.993  17.018   4.695  1.00 20.00    +0.045 H 
ATOM     94 H94  LIG A   1      17.772  15.763   3.758  1.00 20.00    +0.045 H 
ATOM     95 H95  LIG A   1      16.318  15.310   6.424  1.00 20.00    +0.058 H 
ATOM     96 H96  LIG A   1      17.009  14.023   5.435  1.00 20.00    +0.058 H 
ATOM     97 H97  LIG A   1      16.102  14.579   2.811  1.00 20.00    +0.059 H 
ATOM     98 H98  LIG A   1      15.646  13.150   3.751  1.00 20.00    +0.059 H 
ATOM     99 H99  LIG A   1      13.718  15.200   2.534  1.00 20.00    +0.059 H 
ATOM    100 H100 LIG A   1      13.208  13.843   3.532  1.00 20.00    +0.059 H 
ATOM    101 H101 LIG A   1      14.015  12.428   1.997  1.00 20.00    +0.210 HD
ENDROOT
TORSDOF 0
                                                                                                        
ENDMDL
MODEL 4
REMARK VINA RESULT:    -9.100      2.139     13.678
REMARK INTER + INTRA:          -9.100
REMARK INTER:                  -9.100
REMARK INTRA:                   0.000
REMARK UNBOUND:                 0.000
ROOT
ATOM      1 N1   LIG A   1      18.948  32.691  17.335  1.00 20.00    -0.330 NA
ATOM      2 C2   LIG A   1      18.247  31.779  16.437  1.00 20.00    -0.008 C 
ATOM      3 C3   LIG A   1      18.719  30.340  16.637  1.00 20.00    -0.040 C 
ATOM      4 C4   LIG A   1      17.979  29.379  15.701  1.00 20.00    -0.039 C 
ATOM      5 C5   LIG A   1      18.379  27.916  15.911  1.00 20.00    -0.005 C 
ATOM      6 N6   LIG A   1      19.788  27.705  15.578  1.00 20.00    -0.317 NA
ATOM      7 C7   LIG A   1      20.194  26.321  15.831  1.00 20.00    -0.003 C 
ATOM      8 C8   LIG A   1      21.670  26.146  15.473  1.00 20.00    -0.023 C 
ATOM      9 C9   LIG A   1      22.206  24.765  15.852  1.00 20.00    +0.016 C 
ATOM     10 N10  LIG A   1      21.587  23.686  15.095  1.00 20.00    -0.385 NA
ATOM     11 C11  LIG A   1      21.863  23.430  13.758  1.00 20.00    +0.034 A 
ATOM     12 C12  LIG A   1      22.964  23.948  13.074  1.00 20.00    -0.038 A 
ATOM     13 C13  LIG A   1      23.235  23.591  11.744  1.00 20.00    -0.049 A 
ATOM     14 C14  LIG A   1      22.425  22.677  11.063  1.00 20.00    +0.017 A 
ATOM     15 C15  LIG A   1      22.725  22.293   9.685  1.00 20.00    +0.134 A 
ATOM     16 C16  LIG A   1      23.645  22.708   8.741  1.00 20.00    -0.015 A 
ATOM     17 C17  LIG A   1      23.439  21.909   7.589  1.00 20.00    -0.015 A 
ATOM     18 C18  LIG A   1      22.402  21.046   7.884  1.00 20.00    +0.134 A 
ATOM     19 C19  LIG A   1      21.722  19.977   7.158  1.00 20.00    +0.017 A 
ATOM     20 C20  LIG A   1      22.232  19.497   5.947  1.00 20.00    -0.049 A 
ATOM     21 C21  LIG A   1      21.588  18.462   5.249  1.00 20.00    -0.038 A 
ATOM     22 C22  LIG A   1      20.401  17.895   5.720  1.00 20.00    +0.034 A 
ATOM     23 N23  LIG A   1      19.754  16.822   5.116  1.00 20.00    -0.385 NA
ATOM     24 C24  LIG A   1      20.041  16.390   3.751  1.00 20.00    +0.016 C 
ATOM     25 C25  LIG A   1      21.122  15.307   3.731  1.00 20.00    -0.023 C 
ATOM     26 C26  LIG A   1      20.666  13.987   4.361  1.00 20.00    -0.003 C 
ATOM     27 N27  LIG A   1      19.653  13.330   3.523  1.00 20.00    -0.317 NA
ATOM     28 C28  LIG A   1      19.089  12.140   4.165  1.00 20.00    -0.005 C 
ATOM     29 C29  LIG A   1      18.096  12.448   5.294  1.00 20.00    -0.039 C 
ATOM     30 C30  LIG A   1      16.904  13.291   4.825  1.00 20.00    -0.040 C 
ATOM     31 C31  LIG A   1      15.926  13.642   5.948  1.00 20.00    -0.008 C 
ATOM     32 N32  LIG A   1      15.259  12.477   6.518  1.00 20.00    -0.330 NA
ATOM     33 C33  LIG A   1      19.914  18.358   6.948  1.00 20.00    -0.038 A 
ATOM     34 C34  LIG A   1      20.554  19.387   7.653  1.00 20.00    -0.049 A 
ATOM     35 O35  LIG A   1      21.965  21.288   9.156  1.00 20.00    -0.456 OA
ATOM     36 C36  LIG A   1      21.336  22.133  11.751  1.00 20.00    -0.049 A 
ATOM     37 C37  LIG A   1      21.069  22.497  13.078  1.00 20.00    -0.038 A 
ATOM     38 N38  LIG A   1      19.826  18.116   8.715  1.00 20.00    -0.328 NA
ATOM     39 C39  LIG A   1      19.506  19.425   9.284  1.00 20.00    +0.016 C 
ATOM     40 C40  LIG A   1      20.487  20.525   8.852  1.00 20.00    +0.059 C 
ATOM     41 O41  LIG A   1      20.079  21.815   9.312  1.00 20.00    -0.378 OA
ATOM     42 C42  LIG A   1      20.429  22.063  10.671  1.00 20.00    +0.070 C 
ATOM     43 C43  LIG A   1      19.953  23.457  11.067  1.00 20.00    +0.067 C 
ATOM     44 O44  LIG A   1      20.351  23.772  12.397  1.00 20.00    -0.394 OA
ATOM     45 H45  LIG A   1      18.806  32.392  18.299  1.00 20.00    +0.118 HD
ATOM     46 H46  LIG A   1      19.952  32.619  17.170  1.00 20.00    +0.118 HD
ATOM     47 H47  LIG A   1      18.422  32.094  15.402  1.00 20.00    +0.043 H 
ATOM     48 H48  LIG A   1      17.171  31.856  16.624  1.00 20.00    +0.043 H 
ATOM     49 H49  LIG A   1      18.550  30.036  17.678  1.00 20.00    +0.028 H 
ATOM     50 H50  LIG A   1      19.800  30.281  16.456  1.00 20.00    +0.028 H 
ATOM     51 H51  LIG A   1      16.898  29.469  15.873  1.00 20.00    +0.028 H 
ATOM     52 H52  LIG A   1      18.155  29.666  14.657  1.00 20.00    +0.028 H 
ATOM     53 H53  LIG A   1      17.747  27.281  15.278  1.00 20.00    +0.043 H 
ATOM     54 H54  LIG A   1      18.190  27.638  16.955  1.00 20.00    +0.043 H 
ATOM     55 H55  LIG A   1      19.940  27.928  14.593  1.00 20.00    +0.122 HD
ATOM     56 H56  LIG A   1      19.581  25.635  15.235  1.00 20.00    +0.043 H 
ATOM     57 H57  LIG A   1      20.044  26.079  16.890  1.00 20.00    +0.043 H 
ATOM     58 H58  LIG A   1      21.819  26.337  14.403  1.00 20.00    +0.030 H 
ATOM     59 H59  LIG A   1      22.264  26.897  16.011  1.00 20.00    +0.030 H 
ATOM     60 H60  LIG A   1      23.297  24.737  15.744  1.00 20.00    +0.049 H 
ATOM     61 H61  LIG A   1      22.013  24.584  16.917  1.00 20.00    +0.049 H 
ATOM     62 H62  LIG A   1      20.634  23.466  15.372  1.00 20.00    +0.160 HD
ATOM     63 H63  LIG A   1      23.645  24.642  13.557  1.00 20.00    +0.064 H 
ATOM     64 H64  LIG A   1      24.104  24.031  11.261  1.00 20.00    +0.063 H 
ATOM     65 H65  LIG A   1      24.382  23.488   8.867  1.00 20.00    +0.066 H 
ATOM     66 H66  LIG A   1      23.985  21.958   6.660  1.00 20.00    +0.066 H 
ATOM     67 H67  LIG A   1      23.149  19.904   5.532  1.00 20.00    +0.063 H 
ATOM     68 H68  LIG A   1      22.048  18.111   4.331  1.00 20.00    +0.064 H 
ATOM     69 H69  LIG A   1      18.766  16.773   5.347  1.00 20.00    +0.160 HD
ATOM     70 H70  LIG A   1      19.115  16.000   3.311  1.00 20.00    +0.049 H 
ATOM     71 H71  LIG A   1      20.331  17.236   3.118  1.00 20.00    +0.049 H 
ATOM     72 H72  LIG A   1      21.431  15.130   2.692  1.00 20.00    +0.030 H 
ATOM     73 H73  LIG A   1      22.014  15.653   4.265  1.00 20.00    +0.030 H 
ATOM     74 H74  LIG A   1      21.534  13.325   4.458  1.00 20.00    +0.043 H 
ATOM     75 H75  LIG A   1      20.289  14.181   5.371  1.00 20.00    +0.043 H 
ATOM     76 H76  LIG A   1      20.095  13.047   2.648  1.00 20.00    +0.122 HD
ATOM     77 H77  LIG A   1      18.558  11.568   3.395  1.00 20.00    +0.043 H 
ATOM     78 H78  LIG A   1      19.889  11.487   4.538  1.00 20.00    +0.043 H 
ATOM     79 H79  LIG A   1      18.603  12.955   6.124  1.00 20.00    +0.028 H 
ATOM     80 H80  LIG A   1      17.738  11.492   5.691  1.00 20.00    +0.028 H 
ATOM     81 H81  LIG A   1      16.373  12.762   4.023  1.00 20.00    +0.028 H 
ATOM     82 H82  LIG A   1      17.265  14.232   4.394  1.00 20.00    +0.028 H 
ATOM     83 H83  LIG A   1      16.444  14.187   6.746  1.00 20.00    +0.043 H 
ATOM     84 H84  LIG A   1      15.159  14.317   5.552  1.00 20.00    +0.043 H 
ATOM     85 H85  LIG A   1      14.844  11.922   5.771  1.00 20.00    +0.118 HD
ATOM     86 H86  LIG A   1      15.943  11.873   6.970  1.00 20.00    +0.118 HD
ATOM     87 H87  LIG A   1      19.023  17.912   7.382  1.00 20.00    +0.064 H 
ATOM     88 H88  LIG A   1      20.130  19.714   8.600  1.00 20.00    +0.063 H 
ATOM     89 H89  LIG A   1      20.686  21.407  11.269  1.00 20.00    +0.063 H 
ATOM     90 H90  LIG A   1      20.226  22.029  13.581  1.00 20.00    +0.064 H 
ATOM     91 H91  LIG A   1      19.795  18.170   7.697  1.00 20.00    +0.118 HD
ATOM     92 H92  LIG A   1      20.781  17.856   8.958  1.00 20.00    +0.118 HD
ATOM     93 H93  LIG A   1      18.488  19.707   8.991  1.00 20.00    +0.045 H 
ATOM     94 H94  LIG A   1      19.491  19.337  10.375  1.00 20.00    +0.045 H 
ATOM     95 H95  LIG A   1      20.508  20.578   7.758  1.00 20.00    +0.058 H 
ATOM     96 H96  LIG A   1      21.508  20.306   9.185  1.00 20.00    +0.058 H 
ATOM     97 H97  LIG A   1      19.970  21.322  11.334  1.00 20.00    +0.059 H 
ATOM     98 H98  LIG A   1      21.516  21.996  10.796  1.00 20.00    +0.059 H 
ATOM     99 H99  LIG A   1      18.861  23.514  11.008  1.00 20.00    +0.059 H 
ATOM    100 H100 LIG A   1      20.349  24.218  10.385  1.00 20.00    +0.059 H 
ATOM    101 H101 LIG A   1      21.312  23.919  12.384  1.00 20.00    +0.210 HD
ENDROOT
TORSDOF 0
                                                                                                        
ENDMDL
MODEL 5
REMARK VINA RESULT:    -9.060      2.312     14.094
REMARK INTER + INTRA:          -9.060
REMARK INTER:                  -9.060
REMARK INTRA:                   0.000
REMARK UNBOUND:                 0.000
ROOT
ATOM      1 N1   LIG A   1      20.257  30.954  16.772  1.00 20.00    -0.330 NA
ATOM      2 C2   LIG A   1      19.341  30.024  16.118  1.00 20.00    -0.008 C 
ATOM      3 C3   LIG A   1      19.858  28.589  16.211  1.00 20.00    -0.040 C 
ATOM      4 C4   LIG A   1      18.894  27.609  15.533  1.00 20.00    -0.039 C 
ATOM      5 C5   LIG A   1      19.344  26.151  15.654  1.00 20.00    -0.005 C 
ATOM      6 N6   LIG A   1      20.609  25.932  14.953  1.00 20.00    -0.317 NA
ATOM      7 C7   LIG A   1      21.075  24.553  15.112  1.00 20.00    -0.003 C 
ATOM      8 C8   LIG A   1      22.398  24.369  14.367  1.00 20.00    -0.023 C 
ATOM      9 C9   LIG A   1      23.024  22.996  14.613  1.00 20.00    +0.016 C 
ATOM     10 N10  LIG A   1      22.226  21.903  14.077  1.00 20.00    -0.385 NA
ATOM     11 C11  LIG A   1      22.127  21.618  12.721  1.00 20.00    +0.034 A 
ATOM     12 C12  LIG A   1      22.997  22.122  11.751  1.00 20.00    -0.038 A 
ATOM     13 C13  LIG A   1      22.895  21.738  10.405  1.00 20.00    -0.049 A 
ATOM     14 C14  LIG A   1      21.934  20.810   9.990  1.00 20.00    +0.017 A 
ATOM     15 C15  LIG A   1      21.847  20.398   8.591  1.00 20.00    +0.134 A 
ATOM     16 C16  LIG A   1      22.472  20.792   7.423  1.00 20.00    -0.015 A 
ATOM     17 C17  LIG A   1      21.962  19.970   6.388  1.00 20.00    -0.015 A 
ATOM     18 C18  LIG A   1      21.050  19.114   6.972  1.00 20.00    +0.134 A 
ATOM     19 C19  LIG A   1      20.202  18.030   6.482  1.00 20.00    +0.017 A 
ATOM     20 C20  LIG A   1      20.363  17.525   5.187  1.00 20.00    -0.049 A 
ATOM     21 C21  LIG A   1      19.558  16.476   4.713  1.00 20.00    -0.038 A 
ATOM     22 C22  LIG A   1      18.548  15.920   5.502  1.00 20.00    +0.034 A 
ATOM     23 N23  LIG A   1      17.766  14.835   5.120  1.00 20.00    -0.385 NA
ATOM     24 C24  LIG A   1      17.670  14.375   3.738  1.00 20.00    +0.016 C 
ATOM     25 C25  LIG A   1      18.710  13.291   3.444  1.00 20.00    -0.023 C 
ATOM     26 C26  LIG A   1      18.450  11.985   4.201  1.00 20.00    -0.003 C 
ATOM     27 N27  LIG A   1      17.250  11.311   3.686  1.00 20.00    -0.317 NA
ATOM     28 C28  LIG A   1      16.889  10.136   4.481  1.00 20.00    -0.005 C 
ATOM     29 C29  LIG A   1      16.242  10.468   5.833  1.00 20.00    -0.039 C 
ATOM     30 C30  LIG A   1      14.963  11.302   5.691  1.00 20.00    -0.040 C 
ATOM     31 C31  LIG A   1      14.327  11.677   7.031  1.00 20.00    -0.008 C 
ATOM     32 N32  LIG A   1      13.847  10.524   7.786  1.00 20.00    -0.330 NA
ATOM     33 C33  LIG A   1      18.414  16.409   6.807  1.00 20.00    -0.038 A 
ATOM     34 C34  LIG A   1      19.217  17.452   7.289  1.00 20.00    -0.049 A 
ATOM     35 O35  LIG A   1      20.976  19.383   8.310  1.00 20.00    -0.456 OA
ATOM     36 C36  LIG A   1      21.077  20.281  10.960  1.00 20.00    -0.049 A 
ATOM     37 C37  LIG A   1      21.182  20.672  12.303  1.00 20.00    -0.038 A 
ATOM     38 N38  LIG A   1      18.814  16.204   8.535  1.00 20.00    -0.328 NA
ATOM     39 C39  LIG A   1      18.655  17.525   9.143  1.00 20.00    +0.016 C 
ATOM     40 C40  LIG A   1      19.475  18.614   8.438  1.00 20.00    +0.059 C 
ATOM     41 O41  LIG A   1      19.202  19.914   8.966  1.00 20.00    -0.378 OA
ATOM     42 C42  LIG A   1      19.910  20.190  10.172  1.00 20.00    +0.070 C 
ATOM     43 C43  LIG A   1      19.554  21.592  10.655  1.00 20.00    +0.067 C 
ATOM     44 O44  LIG A   1      20.299  21.934  11.818  1.00 20.00    -0.394 OA
ATOM     45 H45  LIG A   1      20.386  30.675  17.743  1.00 20.00    +0.118 HD
ATOM     46 H46  LIG A   1      21.178  30.878  16.340  1.00 20.00    +0.118 HD
ATOM     47 H47  LIG A   1      19.226  30.318  15.069  1.00 20.00    +0.043 H 
ATOM     48 H48  LIG A   1      18.358  30.106  16.591  1.00 20.00    +0.043 H 
ATOM     49 H49  LIG A   1      19.981  28.307  17.264  1.00 20.00    +0.028 H 
ATOM     50 H50  LIG A   1      20.848  28.526  15.742  1.00 20.00    +0.028 H 
ATOM     51 H51  LIG A   1      17.901  27.705  15.992  1.00 20.00    +0.028 H 
ATOM     52 H52  LIG A   1      18.777  27.875  14.475  1.00 20.00    +0.028 H 
ATOM     53 H53  LIG A   1      18.565  25.504  15.231  1.00 20.00    +0.043 H 
ATOM     54 H54  LIG A   1      19.449  25.895  16.716  1.00 20.00    +0.043 H 
ATOM     55 H55  LIG A   1      20.484  26.135  13.960  1.00 20.00    +0.122 HD
ATOM     56 H56  LIG A   1      20.325  23.855  14.721  1.00 20.00    +0.043 H 
ATOM     57 H57  LIG A   1      21.222  24.333  16.176  1.00 20.00    +0.043 H 
ATOM     58 H58  LIG A   1      22.247  24.538  13.294  1.00 20.00    +0.030 H 
ATOM     59 H59  LIG A   1      23.112  25.131  14.708  1.00 20.00    +0.030 H 
ATOM     60 H60  LIG A   1      24.043  22.966  14.211  1.00 20.00    +0.049 H 
ATOM     61 H61  LIG A   1      23.130  22.837  15.694  1.00 20.00    +0.049 H 
ATOM     62 H62  LIG A   1      21.387  21.689  14.607  1.00 20.00    +0.160 HD
ATOM     63 H63  LIG A   1      23.781  22.825  12.015  1.00 20.00    +0.064 H 
ATOM     64 H64  LIG A   1      23.597  22.166   9.694  1.00 20.00    +0.063 H 
ATOM     65 H65  LIG A   1      23.211  21.574   7.327  1.00 20.00    +0.066 H 
ATOM     66 H66  LIG A   1      22.233  19.999   5.343  1.00 20.00    +0.066 H 
ATOM     67 H67  LIG A   1      21.130  17.923   4.528  1.00 20.00    +0.063 H 
ATOM     68 H68  LIG A   1      19.751  16.107   3.711  1.00 20.00    +0.064 H 
ATOM     69 H69  LIG A   1      16.879  14.792   5.614  1.00 20.00    +0.160 HD
ATOM     70 H70  LIG A   1      16.662  13.977   3.576  1.00 20.00    +0.049 H 
ATOM     71 H71  LIG A   1      17.772  15.208   3.032  1.00 20.00    +0.049 H 
ATOM     72 H72  LIG A   1      18.723  13.093   2.364  1.00 20.00    +0.030 H 
ATOM     73 H73  LIG A   1      19.713  13.648   3.706  1.00 20.00    +0.030 H 
ATOM     74 H74  LIG A   1      19.315  11.324   4.070  1.00 20.00    +0.043 H 
ATOM     75 H75  LIG A   1      18.363  12.200   5.271  1.00 20.00    +0.043 H 
ATOM     76 H76  LIG A   1      17.437  11.011   2.729  1.00 20.00    +0.122 HD
ATOM     77 H77  LIG A   1      16.171   9.548   3.898  1.00 20.00    +0.043 H 
ATOM     78 H78  LIG A   1      17.763   9.490   4.634  1.00 20.00    +0.043 H 
ATOM     79 H79  LIG A   1      16.953  10.991   6.482  1.00 20.00    +0.028 H 
ATOM     80 H80  LIG A   1      16.010   9.520   6.331  1.00 20.00    +0.028 H 
ATOM     81 H81  LIG A   1      14.234  10.757   5.076  1.00 20.00    +0.028 H 
ATOM     82 H82  LIG A   1      15.187  12.234   5.159  1.00 20.00    +0.028 H 
ATOM     83 H83  LIG A   1      15.042  12.238   7.646  1.00 20.00    +0.043 H 
ATOM     84 H84  LIG A   1      13.478  12.343   6.847  1.00 20.00    +0.043 H 
ATOM     85 H85  LIG A   1      13.246   9.954   7.192  1.00 20.00    +0.118 HD
ATOM     86 H86  LIG A   1      14.632   9.929   8.045  1.00 20.00    +0.118 HD
ATOM     87 H87  LIG A   1      17.677  15.972   7.477  1.00 20.00    +0.064 H 
ATOM     88 H88  LIG A   1      19.067  17.798   8.309  1.00 20.00    +0.063 H 
ATOM     89 H89  LIG A   1      20.324  19.546  10.689  1.00 20.00    +0.063 H 
ATOM     90 H90  LIG A   1      20.512  20.216  13.026  1.00 20.00    +0.064 H 
ATOM     91 H91  LIG A   1      18.504  16.237   7.563  1.00 20.00    +0.118 HD
ATOM     92 H92  LIG A   1      19.801  15.948   8.512  1.00 20.00    +0.118 HD
ATOM     93 H93  LIG A   1      17.594  17.801   9.135  1.00 20.00    +0.045 H 
ATOM     94 H94  LIG A   1      18.940  17.459  10.198  1.00 20.00    +0.045 H 
ATOM     95 H95  LIG A   1      19.195  18.645   7.379  1.00 20.00    +0.058 H 
ATOM     96 H96  LIG A   1      20.550  18.401   8.482  1.00 20.00    +0.058 H 
ATOM     97 H97  LIG A   1      19.654  19.462  10.950  1.00 20.00    +0.059 H 
ATOM     98 H98  LIG A   1      20.989  20.124   9.995  1.00 20.00    +0.059 H 
ATOM     99 H99  LIG A   1      18.486  21.649  10.896  1.00 20.00    +0.059 H 
ATOM    100 H100 LIG A   1      19.744  22.339   9.876  1.00 20.00    +0.059 H 
ATOM    101 H101 LIG A   1      21.219  22.080  11.540  1.00 20.00    +0.210 HD
ENDROOT
TORSDOF 0
                                                                                                        
ENDMDL
MODEL 6
REMARK VINA RESULT:    -9.034      3.236     14.447
REMARK INTER + INTRA:          -9.034
REMARK INTER:                  -9.034
REMARK INTRA:                   0.000
REMARK UNBOUND:                 0.000
ROOT
ATOM      1 N1   LIG A   1      22.976  28.889  16.339  1.00 20.00    -0.330 NA
ATOM      2 C2   LIG A   1      21.829  28.097  15.907  1.00 20.00    -0.008 C 
ATOM      3 C3   LIG A   1      22.192  26.617  15.802  1.00 20.00    -0.040 C 
ATOM      4 C4   LIG A   1      20.987  25.782  15.357  1.00 20.00    -0.039 C 
ATOM      5 C5   LIG A   1      21.291  24.282  15.297  1.00 20.00    -0.005 C 
ATOM      6 N6   LIG A   1      22.305  23.993  14.283  1.00 20.00    -0.317 NA
ATOM      7 C7   LIG A   1      22.644  22.568  14.259  1.00 20.00    -0.003 C 
ATOM      8 C8   LIG A   1      23.707  22.312  13.190  1.00 20.00    -0.023 C 
ATOM      9 C9   LIG A   1      24.221  20.872  13.208  1.00 20.00    +0.016 C 
ATOM     10 N10  LIG A   1      23.199  19.898  12.851  1.00 20.00    -0.385 NA
ATOM     11 C11  LIG A   1      22.729  19.718  11.556  1.00 20.00    +0.034 A 
ATOM     12 C12  LIG A   1      23.374  20.202  10.416  1.00 20.00    -0.038 A 
ATOM     13 C13  LIG A   1      22.893  19.921   9.127  1.00 20.00    -0.049 A 
ATOM     14 C14  LIG A   1      21.763  19.120   8.937  1.00 20.00    +0.017 A 
ATOM     15 C15  LIG A   1      21.281  18.814   7.593  1.00 20.00    +0.134 A 
ATOM     16 C16  LIG A   1      21.628  19.226   6.320  1.00 20.00    -0.015 A 
ATOM     17 C17  LIG A   1      20.786  18.528   5.419  1.00 20.00    -0.015 A 
ATOM     18 C18  LIG A   1      19.964  17.725   6.184  1.00 20.00    +0.134 A 
ATOM     19 C19  LIG A   1      18.907  16.762   5.885  1.00 20.00    +0.017 A 
ATOM     20 C20  LIG A   1      18.679  16.334   4.573  1.00 20.00    -0.049 A 
ATOM     21 C21  LIG A   1      17.671  15.401   4.280  1.00 20.00    -0.038 A 
ATOM     22 C22  LIG A   1      16.838  14.890   5.280  1.00 20.00    +0.034 A 
ATOM     23 N23  LIG A   1      15.872  13.913   5.069  1.00 20.00    -0.385 NA
ATOM     24 C24  LIG A   1      15.379  13.559   3.741  1.00 20.00    +0.016 C 
ATOM     25 C25  LIG A   1      16.186  12.404   3.142  1.00 20.00    -0.023 C 
ATOM     26 C26  LIG A   1      15.986  11.080   3.886  1.00 20.00    -0.003 C 
ATOM     27 N27  LIG A   1      14.628  10.560   3.672  1.00 20.00    -0.317 NA
ATOM     28 C28  LIG A   1      14.355   9.372   4.484  1.00 20.00    -0.005 C 
ATOM     29 C29  LIG A   1      14.111   9.671   5.970  1.00 20.00    -0.039 C 
ATOM     30 C30  LIG A   1      12.937  10.630   6.200  1.00 20.00    -0.040 C 
ATOM     31 C31  LIG A   1      12.706  10.971   7.673  1.00 20.00    -0.008 C 
ATOM     32 N32  LIG A   1      12.310   9.820   8.477  1.00 20.00    -0.330 NA
ATOM     33 C33  LIG A   1      17.094  15.299   6.595  1.00 20.00    -0.038 A 
ATOM     34 C34  LIG A   1      18.102  16.226   6.895  1.00 20.00    -0.049 A 
ATOM     35 O35  LIG A   1      20.262  17.907   7.505  1.00 20.00    -0.456 OA
ATOM     36 C36  LIG A   1      21.128  18.609  10.074  1.00 20.00    -0.049 A 
ATOM     37 C37  LIG A   1      21.611  18.896  11.358  1.00 20.00    -0.038 A 
ATOM     38 N38  LIG A   1      17.893  14.940   8.150  1.00 20.00    -0.328 NA
ATOM     39 C39  LIG A   1      18.039  16.225   8.833  1.00 20.00    +0.016 C 
ATOM     40 C40  LIG A   1      18.767  17.277   7.985  1.00 20.00    +0.059 C 
ATOM     41 O41  LIG A   1      18.780  18.558   8.620  1.00 20.00    -0.378 OA
ATOM     42 C42  LIG A   1      19.796  18.682   9.612  1.00 20.00    +0.070 C 
ATOM     43 C43  LIG A   1      19.729  20.076  10.228  1.00 20.00    +0.067 C 
ATOM     44 O44  LIG A   1      20.777  20.266  11.172  1.00 20.00    -0.394 OA
ATOM     45 H45  LIG A   1      23.316  28.534  17.231  1.00 20.00    +0.118 HD
ATOM     46 H46  LIG A   1      23.744  28.756  15.680  1.00 20.00    +0.118 HD
ATOM     47 H47  LIG A   1      21.484  28.472  14.937  1.00 20.00    +0.043 H 
ATOM     48 H48  LIG A   1      21.012  28.239  16.621  1.00 20.00    +0.043 H 
ATOM     49 H49  LIG A   1      22.547  26.253  16.775  1.00 20.00    +0.028 H 
ATOM     50 H50  LIG A   1      23.018  26.493  15.090  1.00 20.00    +0.028 H 
ATOM     51 H51  LIG A   1      20.160  25.939  16.062  1.00 20.00    +0.028 H 
ATOM     52 H52  LIG A   1      20.635  26.129  14.377  1.00 20.00    +0.028 H 
ATOM     53 H53  LIG A   1      20.365  23.742  15.063  1.00 20.00    +0.043 H 
ATOM     54 H54  LIG A   1      21.633  23.945  16.284  1.00 20.00    +0.043 H 
ATOM     55 H55  LIG A   1      21.956  24.274  13.366  1.00 20.00    +0.122 HD
ATOM     56 H56  LIG A   1      21.748  21.973  14.046  1.00 20.00    +0.043 H 
ATOM     57 H57  LIG A   1      23.031  22.264  15.238  1.00 20.00    +0.043 H 
ATOM     58 H58  LIG A   1      23.308  22.567  12.200  1.00 20.00    +0.030 H 
ATOM     59 H59  LIG A   1      24.562  22.978  13.365  1.00 20.00    +0.030 H 
ATOM     60 H60  LIG A   1      25.095  20.773  12.554  1.00 20.00    +0.049 H 
ATOM     61 H61  LIG A   1      24.580  20.630  14.216  1.00 20.00    +0.049 H 
ATOM     62 H62  LIG A   1      22.503  19.729  13.572  1.00 20.00    +0.160 HD
ATOM     63 H63  LIG A   1      24.271  20.808  10.497  1.00 20.00    +0.064 H 
ATOM     64 H64  LIG A   1      23.434  20.329   8.278  1.00 20.00    +0.063 H 
ATOM     65 H65  LIG A   1      22.399  19.939   6.069  1.00 20.00    +0.066 H 
ATOM     66 H66  LIG A   1      20.785  18.603   4.342  1.00 20.00    +0.066 H 
ATOM     67 H67  LIG A   1      19.292  16.701   3.755  1.00 20.00    +0.063 H 
ATOM     68 H68  LIG A   1      17.562  15.084   3.249  1.00 20.00    +0.064 H 
ATOM     69 H69  LIG A   1      15.140  13.920   5.774  1.00 20.00    +0.160 HD
ATOM     70 H70  LIG A   1      14.326  13.270   3.829  1.00 20.00    +0.049 H 
ATOM     71 H71  LIG A   1      15.389  14.425   3.069  1.00 20.00    +0.049 H 
ATOM     72 H72  LIG A   1      15.904  12.280   2.089  1.00 20.00    +0.030 H 
ATOM     73 H73  LIG A   1      17.255  12.645   3.151  1.00 20.00    +0.030 H 
ATOM     74 H74  LIG A   1      16.712  10.350   3.509  1.00 20.00    +0.043 H 
ATOM     75 H75  LIG A   1      16.197  11.228   4.950  1.00 20.00    +0.043 H 
ATOM     76 H76  LIG A   1      14.533  10.309   2.687  1.00 20.00    +0.122 HD
ATOM     77 H77  LIG A   1      13.452   8.896   4.083  1.00 20.00    +0.043 H 
ATOM     78 H78  LIG A   1      15.163   8.637   4.378  1.00 20.00    +0.043 H 
ATOM     79 H79  LIG A   1      15.017  10.079   6.434  1.00 20.00    +0.028 H 
ATOM     80 H80  LIG A   1      13.912   8.717   6.471  1.00 20.00    +0.028 H 
ATOM     81 H81  LIG A   1      12.021  10.199   5.772  1.00 20.00    +0.028 H 
ATOM     82 H82  LIG A   1      13.119  11.570   5.667  1.00 20.00    +0.028 H 
ATOM     83 H83  LIG A   1      13.610  11.418   8.104  1.00 20.00    +0.043 H 
ATOM     84 H84  LIG A   1      11.916  11.726   7.743  1.00 20.00    +0.043 H 
ATOM     85 H85  LIG A   1      11.520   9.351   8.036  1.00 20.00    +0.118 HD
ATOM     86 H86  LIG A   1      13.066   9.137   8.500  1.00 20.00    +0.118 HD
ATOM     87 H87  LIG A   1      16.508  14.889   7.414  1.00 20.00    +0.064 H 
ATOM     88 H88  LIG A   1      18.254  16.514   7.933  1.00 20.00    +0.063 H 
ATOM     89 H89  LIG A   1      20.255  17.968   9.977  1.00 20.00    +0.063 H 
ATOM     90 H90  LIG A   1      21.101  18.457  12.211  1.00 20.00    +0.064 H 
ATOM     91 H91  LIG A   1      17.353  15.068   7.294  1.00 20.00    +0.118 HD
ATOM     92 H92  LIG A   1      18.808  14.594   7.862  1.00 20.00    +0.118 HD
ATOM     93 H93  LIG A   1      17.048  16.600   9.112  1.00 20.00    +0.045 H 
ATOM     94 H94  LIG A   1      18.573  16.060   9.775  1.00 20.00    +0.045 H 
ATOM     95 H95  LIG A   1      18.233  17.406   7.037  1.00 20.00    +0.058 H 
ATOM     96 H96  LIG A   1      19.788  16.961   7.741  1.00 20.00    +0.058 H 
ATOM     97 H97  LIG A   1      19.668  17.931  10.398  1.00 20.00    +0.059 H 
ATOM     98 H98  LIG A   1      20.782  18.528   9.159  1.00 20.00    +0.059 H 
ATOM     99 H99  LIG A   1      18.771  20.217  10.740  1.00 20.00    +0.059 H 
ATOM    100 H100 LIG A   1      19.796  20.853   9.458  1.00 20.00    +0.059 H 
ATOM    101 H101 LIG A   1      21.607  20.343  10.671  1.00 20.00    +0.210 HD
ENDROOT
TORSDOF 0
                                                                                                        
ENDMDL
MODEL 7
REMARK VINA RESULT:    -8.982      2.695      2.995
REMARK INTER + INTRA:          -8.982
REMARK INTER:                  -8.982
REMARK INTRA:                   0.000
REMARK UNBOUND:                 0.000
ROOT
ATOM      1 N1   LIG A   1      24.580  11.493   8.867  1.00 20.00    -0.330 NA
ATOM      2 C2   LIG A   1      24.191  12.228  10.065  1.00 20.00    -0.008 C 
ATOM      3 C3   LIG A   1      23.051  13.200   9.767  1.00 20.00    -0.040 C 
ATOM      4 C4   LIG A   1      22.634  13.968  11.025  1.00 20.00    -0.039 C 
ATOM      5 C5   LIG A   1      21.452  14.912  10.784  1.00 20.00    -0.005 C 
ATOM      6 N6   LIG A   1      21.811  15.968   9.838  1.00 20.00    -0.317 NA
ATOM      7 C7   LIG A   1      20.669  16.842   9.558  1.00 20.00    -0.003 C 
ATOM      8 C8   LIG A   1      21.086  17.928   8.565  1.00 20.00    -0.023 C 
ATOM      9 C9   LIG A   1      19.908  18.788   8.107  1.00 20.00    +0.016 C 
ATOM     10 N10  LIG A   1      19.327  19.577   9.185  1.00 20.00    -0.385 NA
ATOM     11 C11  LIG A   1      19.937  20.699   9.730  1.00 20.00    +0.034 A 
ATOM     12 C12  LIG A   1      20.997  21.382   9.130  1.00 20.00    -0.038 A 
ATOM     13 C13  LIG A   1      21.523  22.556   9.690  1.00 20.00    -0.049 A 
ATOM     14 C14  LIG A   1      20.984  23.102  10.860  1.00 20.00    +0.017 A 
ATOM     15 C15  LIG A   1      21.522  24.337  11.426  1.00 20.00    +0.134 A 
ATOM     16 C16  LIG A   1      22.601  25.149  11.132  1.00 20.00    -0.015 A 
ATOM     17 C17  LIG A   1      22.562  26.230  12.048  1.00 20.00    -0.015 A 
ATOM     18 C18  LIG A   1      21.463  26.025  12.858  1.00 20.00    +0.134 A 
ATOM     19 C19  LIG A   1      20.857  26.758  13.967  1.00 20.00    +0.017 A 
ATOM     20 C20  LIG A   1      21.276  28.055  14.283  1.00 20.00    -0.049 A 
ATOM     21 C21  LIG A   1      20.691  28.768  15.341  1.00 20.00    -0.038 A 
ATOM     22 C22  LIG A   1      19.692  28.201  16.137  1.00 20.00    +0.034 A 
ATOM     23 N23  LIG A   1      19.023  28.878  17.151  1.00 20.00    -0.385 NA
ATOM     24 C24  LIG A   1      19.513  30.126  17.728  1.00 20.00    +0.016 C 
ATOM     25 C25  LIG A   1      18.925  31.338  17.001  1.00 20.00    -0.023 C 
ATOM     26 C26  LIG A   1      17.416  31.496  17.212  1.00 20.00    -0.003 C 
ATOM     27 N27  LIG A   1      17.119  31.882  18.598  1.00 20.00    -0.317 NA
ATOM     28 C28  LIG A   1      15.681  31.899  18.874  1.00 20.00    -0.005 C 
ATOM     29 C29  LIG A   1      15.055  30.506  19.025  1.00 20.00    -0.039 C 
ATOM     30 C30  LIG A   1      15.699  29.682  20.147  1.00 20.00    -0.040 C 
ATOM     31 C31  LIG A   1      15.114  28.275  20.283  1.00 20.00    -0.008 C 
ATOM     32 N32  LIG A   1      13.709  28.270  20.680  1.00 20.00    -0.330 NA
ATOM     33 C33  LIG A   1      19.255  26.916  15.795  1.00 20.00    -0.038 A 
ATOM     34 C34  LIG A   1      19.831  26.199  14.737  1.00 20.00    -0.049 A 
ATOM     35 O35  LIG A   1      20.838  24.868  12.483  1.00 20.00    -0.456 OA
ATOM     36 C36  LIG A   1      19.905  22.438  11.451  1.00 20.00    -0.049 A 
ATOM     37 C37  LIG A   1      19.387  21.263  10.889  1.00 20.00    -0.038 A 
ATOM     38 N38  LIG A   1      18.054  25.920  14.927  1.00 20.00    -0.328 NA
ATOM     39 C39  LIG A   1      18.697  24.627  14.694  1.00 20.00    +0.016 C 
ATOM     40 C40  LIG A   1      20.046  24.748  13.972  1.00 20.00    +0.059 C 
ATOM     41 O41  LIG A   1      20.714  23.488  13.875  1.00 20.00    -0.378 OA
ATOM     42 C42  LIG A   1      20.235  22.680  12.803  1.00 20.00    +0.070 C 
ATOM     43 C43  LIG A   1      21.005  21.364  12.782  1.00 20.00    +0.067 C 
ATOM     44 O44  LIG A   1      20.607  20.559  11.677  1.00 20.00    -0.394 OA
ATOM     45 H45  LIG A   1      23.770  11.000   8.493  1.00 20.00    +0.118 HD
ATOM     46 H46  LIG A   1      24.858  12.155   8.141  1.00 20.00    +0.118 HD
ATOM     47 H47  LIG A   1      25.062  12.771  10.448  1.00 20.00    +0.043 H 
ATOM     48 H48  LIG A   1      23.888  11.512  10.836  1.00 20.00    +0.043 H 
ATOM     49 H49  LIG A   1      22.187  12.649   9.374  1.00 20.00    +0.028 H 
ATOM     50 H50  LIG A   1      23.366  13.904   8.985  1.00 20.00    +0.028 H 
ATOM     51 H51  LIG A   1      22.349  13.250  11.807  1.00 20.00    +0.028 H 
ATOM     52 H52  LIG A   1      23.488  14.534  11.416  1.00 20.00    +0.028 H 
ATOM     53 H53  LIG A   1      21.151  15.354  11.742  1.00 20.00    +0.043 H 
ATOM     54 H54  LIG A   1      20.602  14.332  10.403  1.00 20.00    +0.043 H 
ATOM     55 H55  LIG A   1      22.575  16.524  10.226  1.00 20.00    +0.122 HD
ATOM     56 H56  LIG A   1      20.311  17.302  10.486  1.00 20.00    +0.043 H 
ATOM     57 H57  LIG A   1      19.849  16.253   9.130  1.00 20.00    +0.043 H 
ATOM     58 H58  LIG A   1      21.872  18.553   9.006  1.00 20.00    +0.030 H 
ATOM     59 H59  LIG A   1      21.524  17.455   7.676  1.00 20.00    +0.030 H 
ATOM     60 H60  LIG A   1      20.209  19.433   7.274  1.00 20.00    +0.049 H 
ATOM     61 H61  LIG A   1      19.122  18.137   7.704  1.00 20.00    +0.049 H 
ATOM     62 H62  LIG A   1      18.768  19.046   9.846  1.00 20.00    +0.160 HD
ATOM     63 H63  LIG A   1      21.441  21.023   8.207  1.00 20.00    +0.064 H 
ATOM     64 H64  LIG A   1      22.351  23.042   9.180  1.00 20.00    +0.063 H 
ATOM     65 H65  LIG A   1      23.326  24.989  10.348  1.00 20.00    +0.066 H 
ATOM     66 H66  LIG A   1      23.252  27.058  12.105  1.00 20.00    +0.066 H 
ATOM     67 H67  LIG A   1      22.052  28.543  13.700  1.00 20.00    +0.063 H 
ATOM     68 H68  LIG A   1      21.037  29.781  15.518  1.00 20.00    +0.064 H 
ATOM     69 H69  LIG A   1      18.617  28.254  17.843  1.00 20.00    +0.160 HD
ATOM     70 H70  LIG A   1      19.226  30.153  18.786  1.00 20.00    +0.049 H 
ATOM     71 H71  LIG A   1      20.608  30.166  17.721  1.00 20.00    +0.049 H 
ATOM     72 H72  LIG A   1      19.441  32.244  17.344  1.00 20.00    +0.030 H 
ATOM     73 H73  LIG A   1      19.116  31.262  15.924  1.00 20.00    +0.030 H 
ATOM     74 H74  LIG A   1      17.045  32.276  16.536  1.00 20.00    +0.043 H 
ATOM     75 H75  LIG A   1      16.914  30.562  16.938  1.00 20.00    +0.043 H 
ATOM     76 H76  LIG A   1      17.492  32.819  18.757  1.00 20.00    +0.122 HD
ATOM     77 H77  LIG A   1      15.530  32.442  19.815  1.00 20.00    +0.043 H 
ATOM     78 H78  LIG A   1      15.147  32.468  18.102  1.00 20.00    +0.043 H 
ATOM     79 H79  LIG A   1      15.114  29.953  18.080  1.00 20.00    +0.028 H 
ATOM     80 H80  LIG A   1      13.988  30.643  19.234  1.00 20.00    +0.028 H 
ATOM     81 H81  LIG A   1      15.600  30.219  21.100  1.00 20.00    +0.028 H 
ATOM     82 H82  LIG A   1      16.773  29.577  19.957  1.00 20.00    +0.028 H 
ATOM     83 H83  LIG A   1      15.224  27.726  19.341  1.00 20.00    +0.043 H 
ATOM     84 H84  LIG A   1      15.685  27.725  21.039  1.00 20.00    +0.043 H 
ATOM     85 H85  LIG A   1      13.587  28.847  21.511  1.00 20.00    +0.118 HD
ATOM     86 H86  LIG A   1      13.143  28.700  19.951  1.00 20.00    +0.118 HD
ATOM     87 H87  LIG A   1      18.444  26.453  16.351  1.00 20.00    +0.064 H 
ATOM     88 H88  LIG A   1      19.458  25.201  14.517  1.00 20.00    +0.063 H 
ATOM     89 H89  LIG A   1      19.442  22.832  12.353  1.00 20.00    +0.063 H 
ATOM     90 H90  LIG A   1      18.532  20.796  11.369  1.00 20.00    +0.064 H 
ATOM     91 H91  LIG A   1      18.658  26.502  15.507  1.00 20.00    +0.118 HD
ATOM     92 H92  LIG A   1      17.942  26.416  14.043  1.00 20.00    +0.118 HD
ATOM     93 H93  LIG A   1      18.838  24.116  15.654  1.00 20.00    +0.045 H 
ATOM     94 H94  LIG A   1      18.013  23.997  14.117  1.00 20.00    +0.045 H 
ATOM     95 H95  LIG A   1      20.706  25.404  14.551  1.00 20.00    +0.058 H 
ATOM     96 H96  LIG A   1      19.932  25.198  12.979  1.00 20.00    +0.058 H 
ATOM     97 H97  LIG A   1      19.166  22.473  12.917  1.00 20.00    +0.059 H 
ATOM     98 H98  LIG A   1      20.374  23.203  11.850  1.00 20.00    +0.059 H 
ATOM     99 H99  LIG A   1      20.820  20.803  13.705  1.00 20.00    +0.059 H 
ATOM    100 H100 LIG A   1      22.085  21.538  12.726  1.00 20.00    +0.059 H 
ATOM    101 H101 LIG A   1      20.962  20.975  10.874  1.00 20.00    +0.210 HD
ENDROOT
TORSDOF 0
                                                                                                        
ENDMDL
MODEL 8
REMARK VINA RESULT:    -8.970      4.518     14.901
REMARK INTER + INTRA:          -8.970
REMARK INTER:                  -8.970
REMARK INTRA:                   0.000
REMARK UNBOUND:                 0.000
ROOT
ATOM      1 N1   LIG A   1      24.323  30.117  12.024  1.00 20.00    -0.330 NA
ATOM      2 C2   LIG A   1      23.554  29.538  10.927  1.00 20.00    -0.008 C 
ATOM      3 C3   LIG A   1      22.702  28.366  11.414  1.00 20.00    -0.040 C 
ATOM      4 C4   LIG A   1      21.886  27.761  10.267  1.00 20.00    -0.039 C 
ATOM      5 C5   LIG A   1      20.972  26.621  10.723  1.00 20.00    -0.005 C 
ATOM      6 N6   LIG A   1      21.753  25.491  11.224  1.00 20.00    -0.317 NA
ATOM      7 C7   LIG A   1      20.885  24.419  11.715  1.00 20.00    -0.003 C 
ATOM      8 C8   LIG A   1      21.741  23.261  12.232  1.00 20.00    -0.023 C 
ATOM      9 C9   LIG A   1      20.908  22.168  12.900  1.00 20.00    +0.016 C 
ATOM     10 N10  LIG A   1      20.014  21.487  11.973  1.00 20.00    -0.385 NA
ATOM     11 C11  LIG A   1      20.448  20.576  11.018  1.00 20.00    +0.034 A 
ATOM     12 C12  LIG A   1      21.708  19.974  11.027  1.00 20.00    -0.038 A 
ATOM     13 C13  LIG A   1      22.063  19.002  10.078  1.00 20.00    -0.049 A 
ATOM     14 C14  LIG A   1      21.153  18.580   9.104  1.00 20.00    +0.017 A 
ATOM     15 C15  LIG A   1      21.521  17.552   8.133  1.00 20.00    +0.134 A 
ATOM     16 C16  LIG A   1      22.689  16.877   7.830  1.00 20.00    -0.015 A 
ATOM     17 C17  LIG A   1      22.379  15.969   6.788  1.00 20.00    -0.015 A 
ATOM     18 C18  LIG A   1      21.038  16.133   6.503  1.00 20.00    +0.134 A 
ATOM     19 C19  LIG A   1      20.105  15.508   5.568  1.00 20.00    +0.017 A 
ATOM     20 C20  LIG A   1      20.468  14.360   4.855  1.00 20.00    -0.049 A 
ATOM     21 C21  LIG A   1      19.572  13.748   3.963  1.00 20.00    -0.038 A 
ATOM     22 C22  LIG A   1      18.300  14.278   3.730  1.00 20.00    +0.034 A 
ATOM     23 N23  LIG A   1      17.342  13.683   2.916  1.00 20.00    -0.385 NA
ATOM     24 C24  LIG A   1      17.663  12.636   1.951  1.00 20.00    +0.016 C 
ATOM     25 C25  LIG A   1      17.505  11.245   2.571  1.00 20.00    -0.023 C 
ATOM     26 C26  LIG A   1      16.051  10.896   2.903  1.00 20.00    -0.003 C 
ATOM     27 N27  LIG A   1      15.265  10.701   1.676  1.00 20.00    -0.317 NA
ATOM     28 C28  LIG A   1      13.840  10.509   1.954  1.00 20.00    -0.005 C 
ATOM     29 C29  LIG A   1      13.098  11.795   2.341  1.00 20.00    -0.039 C 
ATOM     30 C30  LIG A   1      13.184  12.881   1.262  1.00 20.00    -0.040 C 
ATOM     31 C31  LIG A   1      12.484  14.185   1.650  1.00 20.00    -0.008 C 
ATOM     32 N32  LIG A   1      11.041  14.040   1.810  1.00 20.00    -0.330 NA
ATOM     33 C33  LIG A   1      17.933  15.408   4.471  1.00 20.00    -0.038 A 
ATOM     34 C34  LIG A   1      18.820  16.021   5.367  1.00 20.00    -0.049 A 
ATOM     35 O35  LIG A   1      20.522  17.102   7.317  1.00 20.00    -0.456 OA
ATOM     36 C36  LIG A   1      19.881  19.159   9.106  1.00 20.00    -0.049 A 
ATOM     37 C37  LIG A   1      19.534  20.132  10.054  1.00 20.00    -0.038 A 
ATOM     38 N38  LIG A   1      17.094  16.051   5.910  1.00 20.00    -0.328 NA
ATOM     39 C39  LIG A   1      17.673  17.372   6.155  1.00 20.00    +0.016 C 
ATOM     40 C40  LIG A   1      19.203  17.343   6.286  1.00 20.00    +0.059 C 
ATOM     41 O41  LIG A   1      19.755  18.657   6.393  1.00 20.00    -0.378 OA
ATOM     42 C42  LIG A   1      19.672  19.195   7.710  1.00 20.00    +0.070 C 
ATOM     43 C43  LIG A   1      20.284  20.592   7.722  1.00 20.00    +0.067 C 
ATOM     44 O44  LIG A   1      20.288  21.134   9.038  1.00 20.00    -0.394 OA
ATOM     45 H45  LIG A   1      23.688  30.412  12.765  1.00 20.00    +0.118 HD
ATOM     46 H46  LIG A   1      24.913  29.396  12.439  1.00 20.00    +0.118 HD
ATOM     47 H47  LIG A   1      24.245  29.204  10.146  1.00 20.00    +0.043 H 
ATOM     48 H48  LIG A   1      22.918  30.315  10.492  1.00 20.00    +0.043 H 
ATOM     49 H49  LIG A   1      22.020  28.707  12.204  1.00 20.00    +0.028 H 
ATOM     50 H50  LIG A   1      23.352  27.601  11.857  1.00 20.00    +0.028 H 
ATOM     51 H51  LIG A   1      21.263  28.545   9.815  1.00 20.00    +0.028 H 
ATOM     52 H52  LIG A   1      22.561  27.404   9.479  1.00 20.00    +0.028 H 
ATOM     53 H53  LIG A   1      20.355  26.301   9.874  1.00 20.00    +0.043 H 
ATOM     54 H54  LIG A   1      20.296  26.993  11.503  1.00 20.00    +0.043 H 
ATOM     55 H55  LIG A   1      22.346  25.130  10.474  1.00 20.00    +0.122 HD
ATOM     56 H56  LIG A   1      20.229  24.068  10.910  1.00 20.00    +0.043 H 
ATOM     57 H57  LIG A   1      20.255  24.797  12.529  1.00 20.00    +0.043 H 
ATOM     58 H58  LIG A   1      22.338  22.845  11.411  1.00 20.00    +0.030 H 
ATOM     59 H59  LIG A   1      22.454  23.643  12.975  1.00 20.00    +0.030 H 
ATOM     60 H60  LIG A   1      21.561  21.448  13.407  1.00 20.00    +0.049 H 
ATOM     61 H61  LIG A   1      20.294  22.615  13.692  1.00 20.00    +0.049 H 
ATOM     62 H62  LIG A   1      19.201  22.027  11.692  1.00 20.00    +0.160 HD
ATOM     63 H63  LIG A   1      22.449  20.241  11.775  1.00 20.00    +0.064 H 
ATOM     64 H64  LIG A   1      23.059  18.572  10.132  1.00 20.00    +0.063 H 
ATOM     65 H65  LIG A   1      23.649  17.017   8.306  1.00 20.00    +0.066 H 
ATOM     66 H66  LIG A   1      23.054  15.277   6.308  1.00 20.00    +0.066 H 
ATOM     67 H67  LIG A   1      21.445  13.907   4.993  1.00 20.00    +0.063 H 
ATOM     68 H68  LIG A   1      19.899  12.843   3.462  1.00 20.00    +0.064 H 
ATOM     69 H69  LIG A   1      16.650  14.342   2.571  1.00 20.00    +0.160 HD
ATOM     70 H70  LIG A   1      16.988  12.740   1.093  1.00 20.00    +0.049 H 
ATOM     71 H71  LIG A   1      18.673  12.764   1.545  1.00 20.00    +0.049 H 
ATOM     72 H72  LIG A   1      17.913  10.498   1.879  1.00 20.00    +0.030 H 
ATOM     73 H73  LIG A   1      18.095  11.172   3.491  1.00 20.00    +0.030 H 
ATOM     74 H74  LIG A   1      16.036   9.968   3.488  1.00 20.00    +0.043 H 
ATOM     75 H75  LIG A   1      15.625  11.684   3.533  1.00 20.00    +0.043 H 
ATOM     76 H76  LIG A   1      15.618   9.871   1.198  1.00 20.00    +0.122 HD
ATOM     77 H77  LIG A   1      13.375  10.111   1.044  1.00 20.00    +0.043 H 
ATOM     78 H78  LIG A   1      13.698   9.746   2.730  1.00 20.00    +0.043 H 
ATOM     79 H79  LIG A   1      13.480  12.189   3.291  1.00 20.00    +0.028 H 
ATOM     80 H80  LIG A   1      12.049  11.532   2.517  1.00 20.00    +0.028 H 
ATOM     81 H81  LIG A   1      12.762  12.499   0.322  1.00 20.00    +0.028 H 
ATOM     82 H82  LIG A   1      14.235  13.117   1.059  1.00 20.00    +0.028 H 
ATOM     83 H83  LIG A   1      12.912  14.583   2.578  1.00 20.00    +0.043 H 
ATOM     84 H84  LIG A   1      12.669  14.932   0.871  1.00 20.00    +0.043 H 
ATOM     85 H85  LIG A   1      10.649  13.595   0.981  1.00 20.00    +0.118 HD
ATOM     86 H86  LIG A   1      10.841  13.414   2.588  1.00 20.00    +0.118 HD
ATOM     87 H87  LIG A   1      16.935  15.826   4.364  1.00 20.00    +0.064 H 
ATOM     88 H88  LIG A   1      18.486  16.901   5.914  1.00 20.00    +0.063 H 
ATOM     89 H89  LIG A   1      19.134  18.851   8.377  1.00 20.00    +0.063 H 
ATOM     90 H90  LIG A   1      18.525  20.535  10.032  1.00 20.00    +0.064 H 
ATOM     91 H91  LIG A   1      17.467  15.672   5.039  1.00 20.00    +0.118 HD
ATOM     92 H92  LIG A   1      17.376  15.406   6.647  1.00 20.00    +0.118 HD
ATOM     93 H93  LIG A   1      17.388  18.049   5.342  1.00 20.00    +0.045 H 
ATOM     94 H94  LIG A   1      17.223  17.787   7.063  1.00 20.00    +0.045 H 
ATOM     95 H95  LIG A   1      19.632  16.899   5.380  1.00 20.00    +0.058 H 
ATOM     96 H96  LIG A   1      19.523  16.724   7.132  1.00 20.00    +0.058 H 
ATOM     97 H97  LIG A   1      18.631  19.251   8.044  1.00 20.00    +0.059 H 
ATOM     98 H98  LIG A   1      20.214  18.550   8.411  1.00 20.00    +0.059 H 
ATOM     99 H99  LIG A   1      19.708  21.262   7.072  1.00 20.00    +0.059 H 
ATOM    100 H100 LIG A   1      21.309  20.579   7.336  1.00 20.00    +0.059 H 
ATOM    101 H101 LIG A   1      20.961  20.651   9.547  1.00 20.00    +0.210 HD
ENDROOT
TORSDOF 0
                                                                                                        
ENDMDL
MODEL 9
REMARK VINA RESULT:    -8.830      5.651     14.148
REMARK INTER + INTRA:          -8.830
REMARK INTER:                  -8.830
REMARK INTRA:                   0.000
REMARK UNBOUND:                 0.000
ROOT
ATOM      1 N1   LIG A   1       2.700  32.900  18.984  1.00 20.00    -0.330 NA
ATOM      2 C2   LIG A   1       3.677  32.611  17.939  1.00 20.00    -0.008 C 
ATOM      3 C3   LIG A   1       4.489  31.362  18.277  1.00 20.00    -0.040 C 
ATOM      4 C4   LIG A   1       5.511  31.052  17.178  1.00 20.00    -0.039 C 
ATOM      5 C5   LIG A   1       6.306  29.771  17.447  1.00 20.00    -0.005 C 
ATOM      6 N6   LIG A   1       7.125  29.907  18.651  1.00 20.00    -0.317 NA
ATOM      7 C7   LIG A   1       7.845  28.667  18.948  1.00 20.00    -0.003 C 
ATOM      8 C8   LIG A   1       8.685  28.852  20.213  1.00 20.00    -0.023 C 
ATOM      9 C9   LIG A   1       9.348  27.553  20.672  1.00 20.00    +0.016 C 
ATOM     10 N10  LIG A   1      10.338  27.055  19.728  1.00 20.00    -0.385 NA
ATOM     11 C11  LIG A   1      11.588  27.634  19.550  1.00 20.00    +0.034 A 
ATOM     12 C12  LIG A   1      12.165  28.540  20.442  1.00 20.00    -0.038 A 
ATOM     13 C13  LIG A   1      13.465  29.033  20.249  1.00 20.00    -0.049 A 
ATOM     14 C14  LIG A   1      14.244  28.609  19.167  1.00 20.00    +0.017 A 
ATOM     15 C15  LIG A   1      15.604  29.109  18.984  1.00 20.00    +0.134 A 
ATOM     16 C16  LIG A   1      16.379  30.065  19.613  1.00 20.00    -0.015 A 
ATOM     17 C17  LIG A   1      17.643  30.055  18.972  1.00 20.00    -0.015 A 
ATOM     18 C18  LIG A   1      17.578  29.096  17.981  1.00 20.00    +0.134 A 
ATOM     19 C19  LIG A   1      18.520  28.582  16.990  1.00 20.00    +0.017 A 
ATOM     20 C20  LIG A   1      19.876  28.926  17.044  1.00 20.00    -0.049 A 
ATOM     21 C21  LIG A   1      20.788  28.427  16.101  1.00 20.00    -0.038 A 
ATOM     22 C22  LIG A   1      20.374  27.597  15.056  1.00 20.00    +0.034 A 
ATOM     23 N23  LIG A   1      21.236  27.013  14.133  1.00 20.00    -0.385 NA
ATOM     24 C24  LIG A   1      22.610  27.466  13.936  1.00 20.00    +0.016 C 
ATOM     25 C25  LIG A   1      23.582  26.684  14.823  1.00 20.00    -0.023 C 
ATOM     26 C26  LIG A   1      23.705  25.208  14.429  1.00 20.00    -0.003 C 
ATOM     27 N27  LIG A   1      24.393  25.067  13.138  1.00 20.00    -0.317 NA
ATOM     28 C28  LIG A   1      24.399  23.682  12.661  1.00 20.00    -0.005 C 
ATOM     29 C29  LIG A   1      23.050  23.205  12.105  1.00 20.00    -0.039 C 
ATOM     30 C30  LIG A   1      22.552  24.061  10.935  1.00 20.00    -0.040 C 
ATOM     31 C31  LIG A   1      21.189  23.624  10.396  1.00 20.00    -0.008 C 
ATOM     32 N32  LIG A   1      21.203  22.291   9.802  1.00 20.00    -0.330 NA
ATOM     33 C33  LIG A   1      19.023  27.231  15.027  1.00 20.00    -0.038 A 
ATOM     34 C34  LIG A   1      18.107  27.721  15.968  1.00 20.00    -0.049 A 
ATOM     35 O35  LIG A   1      16.334  28.529  17.985  1.00 20.00    -0.456 OA
ATOM     36 C36  LIG A   1      13.683  27.681  18.285  1.00 20.00    -0.049 A 
ATOM     37 C37  LIG A   1      12.382  27.196  18.481  1.00 20.00    -0.038 A 
ATOM     38 N38  LIG A   1      17.788  26.016  15.455  1.00 20.00    -0.328 NA
ATOM     39 C39  LIG A   1      16.512  26.731  15.481  1.00 20.00    +0.016 C 
ATOM     40 C40  LIG A   1      16.529  27.957  16.406  1.00 20.00    +0.059 C 
ATOM     41 O41  LIG A   1      15.319  28.712  16.313  1.00 20.00    -0.378 OA
ATOM     42 C42  LIG A   1      14.256  28.166  17.089  1.00 20.00    +0.070 C 
ATOM     43 C43  LIG A   1      13.015  29.038  16.925  1.00 20.00    +0.067 C 
ATOM     44 O44  LIG A   1      11.951  28.567  17.745  1.00 20.00    -0.394 OA
ATOM     45 H45  LIG A   1       2.091  32.093  19.110  1.00 20.00    +0.118 HD
ATOM     46 H46  LIG A   1       3.185  33.019  19.874  1.00 20.00    +0.118 HD
ATOM     47 H47  LIG A   1       4.341  33.475  17.826  1.00 20.00    +0.043 H 
ATOM     48 H48  LIG A   1       3.150  32.477  16.989  1.00 20.00    +0.043 H 
ATOM     49 H49  LIG A   1       3.815  30.504  18.399  1.00 20.00    +0.028 H 
ATOM     50 H50  LIG A   1       5.003  31.508  19.236  1.00 20.00    +0.028 H 
ATOM     51 H51  LIG A   1       4.985  30.937  16.220  1.00 20.00    +0.028 H 
ATOM     52 H52  LIG A   1       6.198  31.898  17.059  1.00 20.00    +0.028 H 
ATOM     53 H53  LIG A   1       6.946  29.564  16.581  1.00 20.00    +0.043 H 
ATOM     54 H54  LIG A   1       5.608  28.931  17.555  1.00 20.00    +0.043 H 
ATOM     55 H55  LIG A   1       7.796  30.666  18.519  1.00 20.00    +0.122 HD
ATOM     56 H56  LIG A   1       8.493  28.398  18.106  1.00 20.00    +0.043 H 
ATOM     57 H57  LIG A   1       7.129  27.852  19.102  1.00 20.00    +0.043 H 
ATOM     58 H58  LIG A   1       9.438  29.633  20.049  1.00 20.00    +0.030 H 
ATOM     59 H59  LIG A   1       8.038  29.207  21.027  1.00 20.00    +0.030 H 
ATOM     60 H60  LIG A   1       9.792  27.684  21.666  1.00 20.00    +0.049 H 
ATOM     61 H61  LIG A   1       8.579  26.780  20.794  1.00 20.00    +0.049 H 
ATOM     62 H62  LIG A   1       9.951  26.637  18.887  1.00 20.00    +0.160 HD
ATOM     63 H63  LIG A   1      11.620  28.886  21.315  1.00 20.00    +0.064 H 
ATOM     64 H64  LIG A   1      13.859  29.740  20.974  1.00 20.00    +0.063 H 
ATOM     65 H65  LIG A   1      16.076  30.690  20.440  1.00 20.00    +0.066 H 
ATOM     66 H66  LIG A   1      18.496  30.672  19.210  1.00 20.00    +0.066 H 
ATOM     67 H67  LIG A   1      20.252  29.572  17.832  1.00 20.00    +0.063 H 
ATOM     68 H68  LIG A   1      21.831  28.705  16.213  1.00 20.00    +0.064 H 
ATOM     69 H69  LIG A   1      20.774  26.758  13.265  1.00 20.00    +0.160 HD
ATOM     70 H70  LIG A   1      22.872  27.322  12.881  1.00 20.00    +0.049 H 
ATOM     71 H71  LIG A   1      22.705  28.543  14.116  1.00 20.00    +0.049 H 
ATOM     72 H72  LIG A   1      24.569  27.160  14.776  1.00 20.00    +0.030 H 
ATOM     73 H73  LIG A   1      23.262  26.735  15.870  1.00 20.00    +0.030 H 
ATOM     74 H74  LIG A   1      24.281  24.684  15.201  1.00 20.00    +0.043 H 
ATOM     75 H75  LIG A   1      22.707  24.757  14.405  1.00 20.00    +0.043 H 
ATOM     76 H76  LIG A   1      25.359  25.375  13.255  1.00 20.00    +0.122 HD
ATOM     77 H77  LIG A   1      25.141  23.611  11.857  1.00 20.00    +0.043 H 
ATOM     78 H78  LIG A   1      24.739  23.003  13.453  1.00 20.00    +0.043 H 
ATOM     79 H79  LIG A   1      22.293  23.185  12.897  1.00 20.00    +0.028 H 
ATOM     80 H80  LIG A   1      23.177  22.168  11.775  1.00 20.00    +0.028 H 
ATOM     81 H81  LIG A   1      23.294  24.045  10.125  1.00 20.00    +0.028 H 
ATOM     82 H82  LIG A   1      22.462  25.106  11.255  1.00 20.00    +0.028 H 
ATOM     83 H83  LIG A   1      20.438  23.655  11.194  1.00 20.00    +0.043 H 
ATOM     84 H84  LIG A   1      20.865  24.337   9.630  1.00 20.00    +0.043 H 
ATOM     85 H85  LIG A   1      21.954  22.232   9.116  1.00 20.00    +0.118 HD
ATOM     86 H86  LIG A   1      21.418  21.597  10.516  1.00 20.00    +0.118 HD
ATOM     87 H87  LIG A   1      18.663  26.545  14.264  1.00 20.00    +0.064 H 
ATOM     88 H88  LIG A   1      17.067  27.409  15.896  1.00 20.00    +0.063 H 
ATOM     89 H89  LIG A   1      14.255  27.310  17.437  1.00 20.00    +0.063 H 
ATOM     90 H90  LIG A   1      11.997  26.456  17.784  1.00 20.00    +0.064 H 
ATOM     91 H91  LIG A   1      18.522  26.640  15.120  1.00 20.00    +0.118 HD
ATOM     92 H92  LIG A   1      18.053  25.744  16.401  1.00 20.00    +0.118 HD
ATOM     93 H93  LIG A   1      16.252  27.044  14.463  1.00 20.00    +0.045 H 
ATOM     94 H94  LIG A   1      15.727  26.033  15.791  1.00 20.00    +0.045 H 
ATOM     95 H95  LIG A   1      17.339  28.628  16.097  1.00 20.00    +0.058 H 
ATOM     96 H96  LIG A   1      16.724  27.673  17.447  1.00 20.00    +0.058 H 
ATOM     97 H97  LIG A   1      14.026  27.144  16.771  1.00 20.00    +0.059 H 
ATOM     98 H98  LIG A   1      14.544  28.131  18.146  1.00 20.00    +0.059 H 
ATOM     99 H99  LIG A   1      12.681  29.026  15.882  1.00 20.00    +0.059 H 
ATOM    100 H100 LIG A   1      13.228  30.081  17.181  1.00 20.00    +0.059 H 
ATOM    101 H101 LIG A   1      12.182  28.774  18.666  1.00 20.00    +0.210 HD
ENDROOT
TORSDOF 0
                                                                                                        
ENDMDL
