ROOT
ATOM      1 C1   LIG A   1      -7.115   3.377  -0.152  1.00 20.00    -0.060 C 
ATOM      2 C2   LIG A   1      -6.188   2.222  -0.585  1.00 20.00    -0.016 C 
ATOM      3 C3   LIG A   1      -4.781   2.845  -0.803  1.00 20.00    -0.023 C 
ATOM      4 C4   LIG A   1      -3.709   2.016  -1.465  1.00 20.00    -0.046 C 
ATOM      5 C5   LIG A   1      -2.460   1.790  -0.996  1.00 20.00    -0.059 C 
ATOM      6 C6   LIG A   1      -2.314   1.276   0.365  1.00 20.00    -0.054 C 
ATOM      7 C7   LIG A   1      -1.538   0.220   0.711  1.00 20.00    +0.009 C 
ATOM      8 C8   LIG A   1      -0.432  -0.186  -0.117  1.00 20.00    +0.131 A 
ATOM      9 C9   LIG A   1      -0.397  -0.836  -1.345  1.00 20.00    -0.015 A 
ATOM     10 C10  LIG A   1       0.960  -1.028  -1.699  1.00 20.00    -0.015 A 
ATOM     11 C11  LIG A   1       1.709  -0.503  -0.669  1.00 20.00    +0.134 A 
ATOM     12 C12  LIG A   1       3.140  -0.377  -0.407  1.00 20.00    +0.017 A 
ATOM     13 C13  LIG A   1       4.080  -0.840  -1.335  1.00 20.00    -0.049 A 
ATOM     14 C14  LIG A   1       5.455  -0.717  -1.096  1.00 20.00    -0.038 A 
ATOM     15 C15  LIG A   1       5.935  -0.110   0.068  1.00 20.00    +0.034 A 
ATOM     16 N16  LIG A   1       7.306  -0.023   0.364  1.00 20.00    -0.385 NA
ATOM     17 C17  LIG A   1       8.189   0.449  -0.717  1.00 20.00    +0.022 C 
ATOM     18 C18  LIG A   1       9.648   0.187  -0.346  1.00 20.00    +0.022 C 
ATOM     19 C19  LIG A   1       9.966  -1.287  -0.486  1.00 20.00    +0.092 C 
ATOM     20 N20  LIG A   1      10.779  -1.732  -1.387  1.00 20.00    -0.289 NA
ATOM     21 N21  LIG A   1       9.362  -2.174   0.350  1.00 20.00    -0.388 NA
ATOM     22 C22  LIG A   1       4.996   0.312   1.016  1.00 20.00    -0.038 A 
ATOM     23 C23  LIG A   1       3.620   0.196   0.777  1.00 20.00    -0.049 A 
ATOM     24 O24  LIG A   1       0.871  -0.008   0.285  1.00 20.00    -0.456 OA
ATOM     25 C25  LIG A   1      -1.910  -0.564   1.964  1.00 20.00    +0.085 C 
ATOM     26 C26  LIG A   1      -0.717  -0.531   2.912  1.00 20.00    +0.311 C 
ATOM     27 O27  LIG A   1      -0.321   0.448   3.528  1.00 20.00    -0.252 OA
ATOM     28 O28  LIG A   1      -0.058  -1.702   3.027  1.00 20.00    -0.481 OA
ATOM     29 C29  LIG A   1      -2.400  -1.998   1.630  1.00 20.00    -0.034 C 
ATOM     30 C30  LIG A   1      -3.840  -2.140   1.086  1.00 20.00    -0.034 C 
ATOM     31 C31  LIG A   1      -4.064  -1.910  -0.429  1.00 20.00    +0.025 C 
ATOM     32 N32  LIG A   1      -4.605  -0.573  -0.739  1.00 20.00    -0.318 NA
ATOM     33 C33  LIG A   1      -4.502  -0.188  -2.088  1.00 20.00    +0.007 C 
ATOM     34 C34  LIG A   1      -4.162   1.059  -2.465  1.00 20.00    -0.043 C 
ATOM     35 C35  LIG A   1      -5.881  -0.359  -0.179  1.00 20.00    +0.243 C 
ATOM     36 O36  LIG A   1      -6.695  -1.279  -0.032  1.00 20.00    -0.273 OA
ATOM     37 C37  LIG A   1      -6.152   1.056   0.432  1.00 20.00    +0.088 C 
ATOM     38 N38  LIG A   1      -7.440   0.951   1.178  1.00 20.00    -0.320 NA
ATOM     39 C39  LIG A   1      -4.608  -2.295  -2.341  1.00 20.00    -0.056 C 
ATOM     40 C40  LIG A   1      -4.411  -0.818  -2.044  1.00 20.00    -0.002 C 
ATOM     41 S41  LIG A   1      -2.662  -0.343  -2.158  1.00 20.00    -0.087 SA
ATOM     42 C42  LIG A   1      -2.096  -0.830  -0.549  1.00 20.00    +0.205 C 
ATOM     43 O43  LIG A   1      -2.839  -1.387   0.253  1.00 20.00    -0.285 OA
ATOM     44 C44  LIG A   1      -0.601  -0.571  -0.264  1.00 20.00    +0.074 C 
ATOM     45 N45  LIG A   1       0.248  -1.412  -1.136  1.00 20.00    -0.321 NA
ATOM     46 C46  LIG A   1      -0.231   0.915  -0.393  1.00 20.00    -0.028 C 
ATOM     47 C47  LIG A   1       0.992   1.344   0.426  1.00 20.00    -0.034 C 
ATOM     48 C48  LIG A   1       2.285   0.602   0.085  1.00 20.00    +0.018 C 
ATOM     49 N49  LIG A   1       3.434   1.281   0.673  1.00 20.00    -0.357 NA
ATOM     50 C50  LIG A   1       3.712   1.211   1.995  1.00 20.00    +0.185 C 
ATOM     51 N51  LIG A   1       3.102   0.475   2.846  1.00 20.00    -0.270 NA
ATOM     52 N52  LIG A   1       4.741   2.021   2.316  1.00 20.00    -0.370 NA
ATOM     53 H53  LIG A   1      -6.827   3.773   0.828  1.00 20.00    +0.023 H 
ATOM     54 H54  LIG A   1      -7.073   4.201  -0.874  1.00 20.00    +0.023 H 
ATOM     55 H55  LIG A   1      -8.162   3.058  -0.107  1.00 20.00    +0.023 H 
ATOM     56 H56  LIG A   1      -6.583   1.855  -1.541  1.00 20.00    +0.032 H 
ATOM     57 H57  LIG A   1      -4.902   3.728  -1.447  1.00 20.00    +0.032 H 
ATOM     58 H58  LIG A   1      -4.416   3.243   0.153  1.00 20.00    +0.032 H 
ATOM     59 H59  LIG A   1      -1.761   1.335  -1.696  1.00 20.00    +0.063 H 
ATOM     60 H60  LIG A   1      -3.093   1.583   1.059  1.00 20.00    +0.063 H 
ATOM     61 H61  LIG A   1      -1.258  -1.129  -1.926  1.00 20.00    +0.066 H 
ATOM     62 H62  LIG A   1       1.339  -1.493  -2.597  1.00 20.00    +0.066 H 
ATOM     63 H63  LIG A   1       3.760  -1.316  -2.258  1.00 20.00    +0.063 H 
ATOM     64 H64  LIG A   1       6.139  -1.133  -1.830  1.00 20.00    +0.064 H 
ATOM     65 H65  LIG A   1       7.448   0.542   1.203  1.00 20.00    +0.160 HD
ATOM     66 H66  LIG A   1       8.036   1.527  -0.847  1.00 20.00    +0.049 H 
ATOM     67 H67  LIG A   1       7.975  -0.038  -1.674  1.00 20.00    +0.049 H 
ATOM     68 H68  LIG A   1       9.857   0.493   0.685  1.00 20.00    +0.037 H 
ATOM     69 H69  LIG A   1      10.305   0.763  -1.007  1.00 20.00    +0.037 H 
ATOM     70 H70  LIG A   1      11.176  -0.969  -1.944  1.00 20.00    +0.189 HD
ATOM     71 H71  LIG A   1       8.421  -1.897   0.639  1.00 20.00    +0.157 HD
ATOM     72 H72  LIG A   1       9.403  -3.122  -0.009  1.00 20.00    +0.157 HD
ATOM     73 H73  LIG A   1       5.321   0.750   1.956  1.00 20.00    +0.064 H 
ATOM     74 H74  LIG A   1       2.926   0.560   1.533  1.00 20.00    +0.063 H 
ATOM     75 H75  LIG A   1      -2.722  -0.073   2.520  1.00 20.00    +0.047 H 
ATOM     76 H76  LIG A   1       0.716  -1.478   3.586  1.00 20.00    +0.296 HD
ATOM     77 H77  LIG A   1      -1.700  -2.512   0.959  1.00 20.00    +0.028 H 
ATOM     78 H78  LIG A   1      -2.379  -2.576   2.566  1.00 20.00    +0.028 H 
ATOM     79 H79  LIG A   1      -4.518  -1.536   1.700  1.00 20.00    +0.029 H 
ATOM     80 H80  LIG A   1      -4.122  -3.186   1.274  1.00 20.00    +0.029 H 
ATOM     81 H81  LIG A   1      -3.126  -2.056  -0.972  1.00 20.00    +0.050 H 
ATOM     82 H82  LIG A   1      -4.776  -2.659  -0.802  1.00 20.00    +0.050 H 
ATOM     83 H83  LIG A   1      -4.707  -0.963  -2.823  1.00 20.00    +0.082 H 
ATOM     84 H84  LIG A   1      -4.126   1.350  -3.510  1.00 20.00    +0.064 H 
ATOM     85 H85  LIG A   1      -5.382   1.236   1.190  1.00 20.00    +0.057 H 
ATOM     86 H86  LIG A   1      -8.157   0.668   0.504  1.00 20.00    +0.119 HD
ATOM     87 H87  LIG A   1      -7.371   0.130   1.788  1.00 20.00    +0.119 HD
ATOM     88 H88  LIG A   1      -5.672  -2.545  -2.279  1.00 20.00    +0.024 H 
ATOM     89 H89  LIG A   1      -4.270  -2.547  -3.353  1.00 20.00    +0.024 H 
ATOM     90 H90  LIG A   1      -4.075  -2.933  -1.628  1.00 20.00    +0.024 H 
ATOM     91 H91  LIG A   1      -4.960  -0.229  -2.788  1.00 20.00    +0.038 H 
ATOM     92 H92  LIG A   1      -4.826  -0.553  -1.067  1.00 20.00    +0.038 H 
ATOM     93 H93  LIG A   1      -0.431  -0.887   0.773  1.00 20.00    +0.055 H 
ATOM     94 H94  LIG A   1       0.033  -2.395  -0.956  1.00 20.00    +0.119 HD
ATOM     95 H95  LIG A   1      -0.009  -1.245  -2.111  1.00 20.00    +0.119 HD
ATOM     96 H96  LIG A   1      -0.061   1.173  -1.445  1.00 20.00    +0.029 H 
ATOM     97 H97  LIG A   1      -1.079   1.529  -0.062  1.00 20.00    +0.029 H 
ATOM     98 H98  LIG A   1       1.138   2.422   0.273  1.00 20.00    +0.029 H 
ATOM     99 H99  LIG A   1       0.767   1.218   1.493  1.00 20.00    +0.029 H 
ATOM    100 H100 LIG A   1       2.429   0.583  -1.000  1.00 20.00    +0.049 H 
ATOM    101 H101 LIG A   1       2.251  -0.436   0.431  1.00 20.00    +0.049 H 
ATOM    102 H102 LIG A   1       3.603   2.196   0.275  1.00 20.00    +0.163 HD
ATOM    103 H103 LIG A   1       3.485   0.631   3.778  1.00 20.00    +0.191 HD
ATOM    104 H104 LIG A   1       5.148   1.826   3.221  1.00 20.00    +0.159 HD
ATOM    105 H105 LIG A   1       5.463   2.001   1.603  1.00 20.00    +0.159 HD
ENDROOT
TORSDOF 0
