ROOT
ATOM      1 C1   LIG A   1      -1.808   0.349  -0.057  1.00 20.00    +0.000 C 
ATOM      2 C2   LIG A   1      -0.806  -0.762   0.158  1.00 20.00    +0.000 C 
ATOM      3 Se3  LIG A   1       0.797  -0.090   1.019  1.00 20.00    +0.000 Se
ATOM      4 C4   LIG A   1       2.215   0.275  -0.226  1.00 20.00    +0.000 C 
ATOM      5 N5   LIG A   1      -8.560   1.150  -0.137  1.00 20.00    -0.330 NA
ATOM      6 C6   LIG A   1      -7.945   0.043   0.559  1.00 20.00    -0.008 C 
ATOM      7 C7   LIG A   1      -6.566   0.329   1.058  1.00 20.00    -0.040 C 
ATOM      8 C8   LIG A   1      -5.593   0.689  -0.023  1.00 20.00    -0.039 C 
ATOM      9 C9   LIG A   1      -4.242   0.953   0.629  1.00 20.00    -0.005 C 
ATOM     10 N10  LIG A   1      -3.712  -0.138   1.333  1.00 20.00    -0.317 NA
ATOM     11 C11  LIG A   1      -3.295  -1.279   0.645  1.00 20.00    -0.003 C 
ATOM     12 C12  LIG A   1      -2.104  -1.196  -0.239  1.00 20.00    -0.023 C 
ATOM     13 C13  LIG A   1      -0.829  -0.793   0.466  1.00 20.00    +0.016 C 
ATOM     14 N14  LIG A   1       0.294  -0.725  -0.445  1.00 20.00    -0.385 NA
ATOM     15 C15  LIG A   1       1.610  -0.375  -0.050  1.00 20.00    +0.035 A 
ATOM     16 C16  LIG A   1       1.937  -0.073   1.254  1.00 20.00    -0.038 A 
ATOM     17 C17  LIG A   1       3.254   0.268   1.577  1.00 20.00    -0.048 A 
ATOM     18 C18  LIG A   1       4.246   0.309   0.614  1.00 20.00    +0.034 A 
ATOM     19 C19  LIG A   1       3.913   0.006  -0.686  1.00 20.00    +0.036 A 
ATOM     20 C20  LIG A   1       2.615  -0.328  -0.990  1.00 20.00    -0.027 A 
ATOM     21 C21  LIG A   1       4.909   0.030  -1.751  1.00 20.00    +0.194 C 
ATOM     22 O22  LIG A   1       4.623  -0.245  -2.949  1.00 20.00    -0.289 OA
ATOM     23 C23  LIG A   1       6.297   0.378  -1.468  1.00 20.00    +0.034 A 
ATOM     24 C24  LIG A   1       7.266   0.410  -2.458  1.00 20.00    -0.050 A 
ATOM     25 C25  LIG A   1       8.572   0.742  -2.166  1.00 20.00    -0.061 A 
ATOM     26 C26  LIG A   1       8.903   1.044  -0.868  1.00 20.00    -0.061 A 
ATOM     27 C27  LIG A   1       7.954   1.017   0.122  1.00 20.00    -0.050 A 
ATOM     28 C28  LIG A   1       6.629   0.681  -0.166  1.00 20.00    +0.034 A 
ATOM     29 C29  LIG A   1       5.629   0.658   0.908  1.00 20.00    +0.194 C 
ATOM     30 O30  LIG A   1       5.960   0.939   2.084  1.00 20.00    -0.289 OA
ATOM     31 H31  LIG A   1      -2.798   0.137   0.393  1.00 20.00    +0.000 H 
ATOM     32 H32  LIG A   1      -1.950   0.487  -1.137  1.00 20.00    +0.000 H 
ATOM     33 H33  LIG A   1      -1.435   1.258   0.454  1.00 20.00    +0.000 H 
ATOM     34 H34  LIG A   1      -1.298  -1.496   0.849  1.00 20.00    +0.000 H 
ATOM     35 H35  LIG A   1      -0.514  -1.258  -0.798  1.00 20.00    +0.000 H 
ATOM     36 H36  LIG A   1       2.364   1.381  -0.271  1.00 20.00    +0.000 H 
ATOM     37 H37  LIG A   1       2.046  -0.122  -1.237  1.00 20.00    +0.000 H 
ATOM     38 H38  LIG A   1       3.188  -0.160   0.119  1.00 20.00    +0.000 H 
ATOM     39 H39  LIG A   1      -9.584   1.113  -0.145  1.00 20.00    +0.118 HD
ATOM     40 H40  LIG A   1      -8.137   1.320  -1.075  1.00 20.00    +0.118 HD
ATOM     41 H41  LIG A   1      -7.993  -0.841  -0.107  1.00 20.00    +0.043 H 
ATOM     42 H42  LIG A   1      -8.580  -0.181   1.447  1.00 20.00    +0.043 H 
ATOM     43 H43  LIG A   1      -6.201  -0.634   1.508  1.00 20.00    +0.028 H 
ATOM     44 H44  LIG A   1      -6.596   1.067   1.862  1.00 20.00    +0.028 H 
ATOM     45 H45  LIG A   1      -5.980   1.613  -0.511  1.00 20.00    +0.028 H 
ATOM     46 H46  LIG A   1      -5.544  -0.081  -0.799  1.00 20.00    +0.028 H 
ATOM     47 H47  LIG A   1      -4.468   1.746   1.400  1.00 20.00    +0.043 H 
ATOM     48 H48  LIG A   1      -3.555   1.478  -0.075  1.00 20.00    +0.043 H 
ATOM     49 H49  LIG A   1      -3.890  -0.203   2.343  1.00 20.00    +0.122 HD
ATOM     50 H50  LIG A   1      -4.160  -1.720   0.111  1.00 20.00    +0.043 H 
ATOM     51 H51  LIG A   1      -3.049  -2.060   1.426  1.00 20.00    +0.043 H 
ATOM     52 H52  LIG A   1      -1.913  -2.242  -0.618  1.00 20.00    +0.030 H 
ATOM     53 H53  LIG A   1      -2.203  -0.585  -1.131  1.00 20.00    +0.030 H 
ATOM     54 H54  LIG A   1      -0.591  -1.602   1.202  1.00 20.00    +0.049 H 
ATOM     55 H55  LIG A   1      -0.941   0.137   1.062  1.00 20.00    +0.049 H 
ATOM     56 H56  LIG A   1       0.098  -0.949  -1.445  1.00 20.00    +0.160 HD
ATOM     57 H57  LIG A   1       1.173  -0.100   2.023  1.00 20.00    +0.064 H 
ATOM     58 H58  LIG A   1       3.542   0.511   2.592  1.00 20.00    +0.063 H 
ATOM     59 H59  LIG A   1       2.347  -0.565  -2.008  1.00 20.00    +0.065 H 
ATOM     60 H60  LIG A   1       7.007   0.169  -3.486  1.00 20.00    +0.063 H 
ATOM     61 H61  LIG A   1       9.299   0.761  -2.947  1.00 20.00    +0.062 H 
ATOM     62 H62  LIG A   1       9.935   1.306  -0.637  1.00 20.00    +0.062 H 
ATOM     63 H63  LIG A   1       8.222   1.259   1.157  1.00 20.00    +0.063 H 
ENDROOT
TORSDOF 0
