ROOT
ATOM      1 C1   LIG A   1      -4.702  -1.327   0.938  1.00 20.00    -0.056 C 
ATOM      2 C2   LIG A   1      -4.825  -0.674  -0.429  1.00 20.00    -0.002 C 
ATOM      3 S3   LIG A   1      -3.247  -0.710  -1.328  1.00 20.00    -0.087 SA
ATOM      4 C4   LIG A   1      -2.368   0.552  -0.462  1.00 20.00    +0.205 C 
ATOM      5 O5   LIG A   1      -2.944   1.389   0.229  1.00 20.00    -0.285 OA
ATOM      6 C6   LIG A   1      -0.848   0.565  -0.712  1.00 20.00    +0.074 C 
ATOM      7 N7   LIG A   1      -0.504   1.733  -1.555  1.00 20.00    -0.321 NA
ATOM      8 C8   LIG A   1      -0.115   0.640   0.638  1.00 20.00    -0.028 C 
ATOM      9 C9   LIG A   1       1.337   0.151   0.607  1.00 20.00    -0.034 C 
ATOM     10 C10  LIG A   1       2.248   0.899  -0.367  1.00 20.00    +0.018 C 
ATOM     11 N11  LIG A   1       3.644   0.545  -0.134  1.00 20.00    -0.357 NA
ATOM     12 C12  LIG A   1       4.155  -0.647  -0.516  1.00 20.00    +0.185 C 
ATOM     13 N13  LIG A   1       3.544  -1.531  -1.214  1.00 20.00    -0.270 NA
ATOM     14 N14  LIG A   1       5.421  -0.796  -0.076  1.00 20.00    -0.370 NA
ATOM     15 N15  LIG A   1     -13.644   1.334  -2.087  1.00 20.00    -0.330 NA
ATOM     16 C16  LIG A   1     -12.337   1.677  -2.637  1.00 20.00    -0.008 C 
ATOM     17 C17  LIG A   1     -11.310   0.586  -2.332  1.00 20.00    -0.040 C 
ATOM     18 C18  LIG A   1      -9.936   0.948  -2.909  1.00 20.00    -0.039 C 
ATOM     19 C19  LIG A   1      -8.887  -0.146  -2.688  1.00 20.00    -0.005 C 
ATOM     20 N20  LIG A   1      -8.628  -0.345  -1.262  1.00 20.00    -0.317 NA
ATOM     21 C21  LIG A   1      -7.673  -1.434  -1.043  1.00 20.00    -0.003 C 
ATOM     22 C22  LIG A   1      -7.424  -1.607   0.457  1.00 20.00    -0.023 C 
ATOM     23 C23  LIG A   1      -6.565  -2.834   0.767  1.00 20.00    +0.016 C 
ATOM     24 N24  LIG A   1      -5.202  -2.713   0.269  1.00 20.00    -0.385 NA
ATOM     25 C25  LIG A   1      -4.231  -1.917   0.863  1.00 20.00    +0.034 A 
ATOM     26 C26  LIG A   1      -4.342  -1.372   2.144  1.00 20.00    -0.038 A 
ATOM     27 C27  LIG A   1      -3.289  -0.649   2.727  1.00 20.00    -0.049 A 
ATOM     28 C28  LIG A   1      -2.077  -0.467   2.052  1.00 20.00    +0.017 A 
ATOM     29 C29  LIG A   1      -0.975   0.263   2.676  1.00 20.00    +0.134 A 
ATOM     30 C30  LIG A   1      -0.824   0.970   3.852  1.00 20.00    -0.015 A 
ATOM     31 C31  LIG A   1       0.519   1.422   3.888  1.00 20.00    -0.015 A 
ATOM     32 C32  LIG A   1       1.122   0.973   2.730  1.00 20.00    +0.134 A 
ATOM     33 C33  LIG A   1       2.465   1.077   2.166  1.00 20.00    +0.017 A 
ATOM     34 C34  LIG A   1       3.516   1.627   2.910  1.00 20.00    -0.049 A 
ATOM     35 C35  LIG A   1       4.810   1.721   2.375  1.00 20.00    -0.038 A 
ATOM     36 C36  LIG A   1       5.094   1.298   1.074  1.00 20.00    +0.034 A 
ATOM     37 N37  LIG A   1       6.364   1.301   0.514  1.00 20.00    -0.385 NA
ATOM     38 C38  LIG A   1       7.484   2.053   1.067  1.00 20.00    +0.016 C 
ATOM     39 C39  LIG A   1       8.306   1.191   2.027  1.00 20.00    -0.023 C 
ATOM     40 C40  LIG A   1       9.028   0.032   1.333  1.00 20.00    -0.003 C 
ATOM     41 N41  LIG A   1      10.105   0.525   0.466  1.00 20.00    -0.317 NA
ATOM     42 C42  LIG A   1      10.725  -0.551  -0.312  1.00 20.00    -0.005 C 
ATOM     43 C43  LIG A   1       9.889  -1.003  -1.517  1.00 20.00    -0.039 C 
ATOM     44 C44  LIG A   1       9.617   0.134  -2.509  1.00 20.00    -0.040 C 
ATOM     45 C45  LIG A   1       8.763  -0.290  -3.708  1.00 20.00    -0.008 C 
ATOM     46 N46  LIG A   1       9.427  -1.259  -4.572  1.00 20.00    -0.330 NA
ATOM     47 C47  LIG A   1       4.045   0.724   0.345  1.00 20.00    -0.038 A 
ATOM     48 C48  LIG A   1       2.751   0.623   0.875  1.00 20.00    -0.049 A 
ATOM     49 O49  LIG A   1       0.208   0.273   1.993  1.00 20.00    -0.456 OA
ATOM     50 C50  LIG A   1      -1.953  -1.027   0.777  1.00 20.00    -0.049 A 
ATOM     51 C51  LIG A   1      -3.009  -1.748   0.201  1.00 20.00    -0.038 A 
ATOM     52 H52  LIG A   1      -5.676  -1.329   1.438  1.00 20.00    +0.024 H 
ATOM     53 H53  LIG A   1      -4.368  -2.367   0.858  1.00 20.00    +0.024 H 
ATOM     54 H54  LIG A   1      -4.004  -0.787   1.586  1.00 20.00    +0.024 H 
ATOM     55 H55  LIG A   1      -5.556  -1.229  -1.026  1.00 20.00    +0.038 H 
ATOM     56 H56  LIG A   1      -5.196   0.353  -0.340  1.00 20.00    +0.038 H 
ATOM     57 H57  LIG A   1      -0.548  -0.351  -1.233  1.00 20.00    +0.055 H 
ATOM     58 H58  LIG A   1      -0.968   1.633  -2.461  1.00 20.00    +0.119 HD
ATOM     59 H59  LIG A   1      -0.907   2.571  -1.130  1.00 20.00    +0.119 HD
ATOM     60 H60  LIG A   1      -0.146   1.665   1.034  1.00 20.00    +0.029 H 
ATOM     61 H61  LIG A   1      -0.651   0.025   1.374  1.00 20.00    +0.029 H 
ATOM     62 H62  LIG A   1       1.743   0.241   1.624  1.00 20.00    +0.029 H 
ATOM     63 H63  LIG A   1       1.344  -0.921   0.371  1.00 20.00    +0.029 H 
ATOM     64 H64  LIG A   1       2.148   1.980  -0.214  1.00 20.00    +0.049 H 
ATOM     65 H65  LIG A   1       1.983   0.688  -1.409  1.00 20.00    +0.049 H 
ATOM     66 H66  LIG A   1       3.982   0.852   0.770  1.00 20.00    +0.163 HD
ATOM     67 H67  LIG A   1       4.146  -2.343  -1.346  1.00 20.00    +0.191 HD
ATOM     68 H68  LIG A   1       5.934  -1.542  -0.527  1.00 20.00    +0.159 HD
ATOM     69 H69  LIG A   1       5.944   0.071  -0.126  1.00 20.00    +0.159 HD
ATOM     70 H70  LIG A   1     -13.947   0.434  -2.460  1.00 20.00    +0.118 HD
ATOM     71 H71  LIG A   1     -13.560   1.201  -1.078  1.00 20.00    +0.118 HD
ATOM     72 H72  LIG A   1     -12.011   2.634  -2.215  1.00 20.00    +0.043 H 
ATOM     73 H73  LIG A   1     -12.434   1.815  -3.720  1.00 20.00    +0.043 H 
ATOM     74 H74  LIG A   1     -11.645  -0.369  -2.757  1.00 20.00    +0.028 H 
ATOM     75 H75  LIG A   1     -11.237   0.449  -1.246  1.00 20.00    +0.028 H 
ATOM     76 H76  LIG A   1     -10.032   1.120  -3.989  1.00 20.00    +0.028 H 
ATOM     77 H77  LIG A   1      -9.587   1.892  -2.471  1.00 20.00    +0.028 H 
ATOM     78 H78  LIG A   1      -7.963   0.146  -3.198  1.00 20.00    +0.043 H 
ATOM     79 H79  LIG A   1      -9.242  -1.077  -3.145  1.00 20.00    +0.043 H 
ATOM     80 H80  LIG A   1      -8.257   0.518  -0.861  1.00 20.00    +0.122 HD
ATOM     81 H81  LIG A   1      -6.729  -1.216  -1.555  1.00 20.00    +0.043 H 
ATOM     82 H82  LIG A   1      -8.078  -2.367  -1.455  1.00 20.00    +0.043 H 
ATOM     83 H83  LIG A   1      -6.964  -0.700   0.866  1.00 20.00    +0.030 H 
ATOM     84 H84  LIG A   1      -8.386  -1.732   0.970  1.00 20.00    +0.030 H 
ATOM     85 H85  LIG A   1      -6.568  -3.037   1.844  1.00 20.00    +0.049 H 
ATOM     86 H86  LIG A   1      -7.016  -3.719   0.304  1.00 20.00    +0.049 H 
ATOM     87 H87  LIG A   1      -5.107  -2.803  -0.738  1.00 20.00    +0.160 HD
ATOM     88 H88  LIG A   1      -5.248  -1.503   2.728  1.00 20.00    +0.064 H 
ATOM     89 H89  LIG A   1      -3.432  -0.250   3.728  1.00 20.00    +0.063 H 
ATOM     90 H90  LIG A   1      -1.585   1.138   4.601  1.00 20.00    +0.066 H 
ATOM     91 H91  LIG A   1       0.987   2.003   4.669  1.00 20.00    +0.066 H 
ATOM     92 H92  LIG A   1       3.353   1.978   3.925  1.00 20.00    +0.063 H 
ATOM     93 H93  LIG A   1       5.590   2.128   3.011  1.00 20.00    +0.064 H 
ATOM     94 H94  LIG A   1       6.369   1.256  -0.501  1.00 20.00    +0.160 HD
ATOM     95 H95  LIG A   1       8.115   2.392   0.236  1.00 20.00    +0.049 H 
ATOM     96 H96  LIG A   1       7.142   2.967   1.567  1.00 20.00    +0.049 H 
ATOM     97 H97  LIG A   1       9.041   1.827   2.538  1.00 20.00    +0.030 H 
ATOM     98 H98  LIG A   1       7.658   0.775   2.807  1.00 20.00    +0.030 H 
ATOM     99 H99  LIG A   1       9.457  -0.625   2.099  1.00 20.00    +0.043 H 
ATOM    100 H100 LIG A   1       8.300  -0.562   0.769  1.00 20.00    +0.043 H 
ATOM    101 H101 LIG A   1      10.818   0.960   1.050  1.00 20.00    +0.122 HD
ATOM    102 H102 LIG A   1      11.690  -0.185  -0.683  1.00 20.00    +0.043 H 
ATOM    103 H103 LIG A   1      10.953  -1.410   0.331  1.00 20.00    +0.043 H 
ATOM    104 H104 LIG A   1       8.939  -1.437  -1.185  1.00 20.00    +0.028 H 
ATOM    105 H105 LIG A   1      10.439  -1.808  -2.019  1.00 20.00    +0.028 H 
ATOM    106 H106 LIG A   1      10.569   0.551  -2.862  1.00 20.00    +0.028 H 
ATOM    107 H107 LIG A   1       9.090   0.949  -1.998  1.00 20.00    +0.028 H 
ATOM    108 H108 LIG A   1       7.809  -0.704  -3.365  1.00 20.00    +0.043 H 
ATOM    109 H109 LIG A   1       8.529   0.598  -4.305  1.00 20.00    +0.043 H 
ATOM    110 H110 LIG A   1      10.341  -0.902  -4.846  1.00 20.00    +0.118 HD
ATOM    111 H111 LIG A   1       9.596  -2.124  -4.062  1.00 20.00    +0.118 HD
ATOM    112 H112 LIG A   1       4.224   0.344  -0.657  1.00 20.00    +0.064 H 
ATOM    113 H113 LIG A   1       1.969   0.181   0.261  1.00 20.00    +0.063 H 
ATOM    114 H114 LIG A   1      -1.025  -0.925   0.219  1.00 20.00    +0.063 H 
ATOM    115 H115 LIG A   1      -2.855  -2.192  -0.780  1.00 20.00    +0.064 H 
ENDROOT
TORSDOF 0
