MODEL 1
REMARK VINA RESULT:   -12.375      0.000      0.000
REMARK INTER + INTRA:         -12.375
REMARK INTER:                 -12.375
REMARK INTRA:                   0.000
REMARK UNBOUND:                 0.000
ROOT
ATOM      1 C1   LIG A   1      21.349  23.297   7.038  1.00 20.00    -0.060 C 
ATOM      2 C2   LIG A   1      21.227  21.781   7.276  1.00 20.00    -0.016 C 
ATOM      3 C3   LIG A   1      22.639  21.128   7.075  1.00 20.00    -0.023 C 
ATOM      4 C4   LIG A   1      23.298  20.647   8.343  1.00 20.00    -0.044 A 
ATOM      5 C5   LIG A   1      23.778  21.550   9.294  1.00 20.00    -0.058 A 
ATOM      6 C6   LIG A   1      23.983  21.127  10.605  1.00 20.00    -0.054 A 
ATOM      7 C7   LIG A   1      23.674  19.807  10.985  1.00 20.00    +0.009 A 
ATOM      8 C8   LIG A   1      23.343  18.875   9.984  1.00 20.00    +0.130 A 
ATOM      9 C9   LIG A   1      23.230  19.286   8.657  1.00 20.00    -0.016 A 
ATOM     10 O10  LIG A   1      23.022  17.591  10.369  1.00 20.00    -0.464 OA
ATOM     11 C11  LIG A   1      22.038  16.914   9.678  1.00 20.00    +0.104 C 
ATOM     12 C12  LIG A   1      20.703  17.120   9.697  1.00 20.00    +0.082 C 
ATOM     13 C13  LIG A   1      19.836  16.154   8.985  1.00 20.00    -0.010 A 
ATOM     14 C14  LIG A   1      19.988  15.937   7.611  1.00 20.00    -0.052 A 
ATOM     15 C15  LIG A   1      19.179  15.011   6.940  1.00 20.00    -0.038 A 
ATOM     16 C16  LIG A   1      18.205  14.265   7.617  1.00 20.00    +0.034 A 
ATOM     17 N17  LIG A   1      17.390  13.410   6.868  1.00 20.00    -0.385 NA
ATOM     18 C18  LIG A   1      16.502  12.469   7.544  1.00 20.00    +0.016 C 
ATOM     19 C19  LIG A   1      15.733  11.621   6.525  1.00 20.00    -0.023 C 
ATOM     20 C20  LIG A   1      14.655  12.399   5.757  1.00 20.00    -0.003 C 
ATOM     21 N21  LIG A   1      15.155  13.486   4.910  1.00 20.00    -0.317 NA
ATOM     22 C22  LIG A   1      15.800  13.040   3.675  1.00 20.00    -0.005 C 
ATOM     23 C23  LIG A   1      14.832  12.559   2.587  1.00 20.00    -0.039 C 
ATOM     24 C24  LIG A   1      14.049  13.664   1.866  1.00 20.00    -0.040 C 
ATOM     25 C25  LIG A   1      13.120  14.481   2.761  1.00 20.00    -0.008 C 
ATOM     26 N26  LIG A   1      12.268  15.341   1.937  1.00 20.00    -0.330 NA
ATOM     27 C27  LIG A   1      18.026  14.524   8.978  1.00 20.00    -0.038 A 
ATOM     28 C28  LIG A   1      18.840  15.441   9.659  1.00 20.00    -0.052 A 
ATOM     29 C29  LIG A   1      20.095  18.204  10.547  1.00 20.00    +0.264 C 
ATOM     30 O30  LIG A   1      19.327  17.911  11.464  1.00 20.00    -0.268 OA
ATOM     31 N31  LIG A   1      20.467  19.513  10.261  1.00 20.00    -0.277 NA
ATOM     32 C32  LIG A   1      20.543  20.438  11.400  1.00 20.00    +0.029 C 
ATOM     33 C33  LIG A   1      20.993  19.914  12.784  1.00 20.00    -0.034 C 
ATOM     34 C34  LIG A   1      22.201  18.968  12.923  1.00 20.00    -0.034 C 
ATOM     35 C35  LIG A   1      23.594  19.480  12.469  1.00 20.00    +0.085 C 
ATOM     36 C36  LIG A   1      24.700  18.517  12.896  1.00 20.00    +0.311 C 
ATOM     37 O37  LIG A   1      25.587  18.037  12.209  1.00 20.00    -0.252 OA
ATOM     38 O38  LIG A   1      24.682  18.258  14.222  1.00 20.00    -0.481 OA
ATOM     39 C39  LIG A   1      20.323  19.973   8.940  1.00 20.00    +0.246 C 
ATOM     40 O40  LIG A   1      20.023  19.232   7.996  1.00 20.00    -0.273 OA
ATOM     41 C41  LIG A   1      20.500  21.495   8.638  1.00 20.00    +0.088 C 
ATOM     42 N42  LIG A   1      19.139  22.093   8.616  1.00 20.00    -0.320 NA
ATOM     43 O43  LIG A   1      17.751  15.865   6.684  1.00 20.00    -0.504 OA
ATOM     44 C44  LIG A   1      18.762  16.551   7.299  1.00 20.00    +0.161 A 
ATOM     45 C45  LIG A   1      20.075  16.499   6.840  1.00 20.00    -0.016 A 
ATOM     46 C46  LIG A   1      21.066  17.223   7.514  1.00 20.00    -0.055 A 
ATOM     47 C47  LIG A   1      20.742  17.990   8.639  1.00 20.00    -0.016 A 
ATOM     48 C48  LIG A   1      19.428  18.028   9.083  1.00 20.00    +0.161 A 
ATOM     49 O49  LIG A   1      19.110  18.773  10.181  1.00 20.00    -0.504 OA
ATOM     50 C50  LIG A   1      18.441  17.314   8.417  1.00 20.00    +0.200 A 
ATOM     51 O51  LIG A   1      17.153  17.368   8.875  1.00 20.00    -0.502 OA
ATOM     52 H52  LIG A   1      20.369  23.784   7.019  1.00 20.00    +0.023 H 
ATOM     53 H53  LIG A   1      21.948  23.775   7.820  1.00 20.00    +0.023 H 
ATOM     54 H54  LIG A   1      21.824  23.503   6.073  1.00 20.00    +0.023 H 
ATOM     55 H55  LIG A   1      20.597  21.393   6.461  1.00 20.00    +0.032 H 
ATOM     56 H56  LIG A   1      22.523  20.276   6.392  1.00 20.00    +0.032 H 
ATOM     57 H57  LIG A   1      23.325  21.809   6.556  1.00 20.00    +0.032 H 
ATOM     58 H58  LIG A   1      23.896  22.603   9.047  1.00 20.00    +0.063 H 
ATOM     59 H59  LIG A   1      24.287  21.862  11.348  1.00 20.00    +0.063 H 
ATOM     60 H60  LIG A   1      22.915  18.578   7.891  1.00 20.00    +0.067 H 
ATOM     61 H61  LIG A   1      22.497  16.081   9.156  1.00 20.00    +0.105 H 
ATOM     62 H62  LIG A   1      20.716  16.509   7.040  1.00 20.00    +0.063 H 
ATOM     63 H63  LIG A   1      19.309  14.889   5.867  1.00 20.00    +0.064 H 
ATOM     64 H64  LIG A   1      17.910  12.989   6.100  1.00 20.00    +0.160 HD
ATOM     65 H65  LIG A   1      17.093  11.800   8.182  1.00 20.00    +0.049 H 
ATOM     66 H66  LIG A   1      15.782  13.001   8.177  1.00 20.00    +0.049 H 
ATOM     67 H67  LIG A   1      15.231  10.813   7.073  1.00 20.00    +0.030 H 
ATOM     68 H68  LIG A   1      16.429  11.137   5.831  1.00 20.00    +0.030 H 
ATOM     69 H69  LIG A   1      13.969  12.846   6.486  1.00 20.00    +0.043 H 
ATOM     70 H70  LIG A   1      14.045  11.698   5.176  1.00 20.00    +0.043 H 
ATOM     71 H71  LIG A   1      15.846  14.009   5.466  1.00 20.00    +0.122 HD
ATOM     72 H72  LIG A   1      16.378  13.882   3.273  1.00 20.00    +0.043 H 
ATOM     73 H73  LIG A   1      16.531  12.251   3.884  1.00 20.00    +0.043 H 
ATOM     74 H74  LIG A   1      14.135  11.813   2.981  1.00 20.00    +0.028 H 
ATOM     75 H75  LIG A   1      15.425  12.037   1.826  1.00 20.00    +0.028 H 
ATOM     76 H76  LIG A   1      13.460  13.182   1.074  1.00 20.00    +0.028 H 
ATOM     77 H77  LIG A   1      14.755  14.335   1.359  1.00 20.00    +0.028 H 
ATOM     78 H78  LIG A   1      12.489  13.823   3.369  1.00 20.00    +0.043 H 
ATOM     79 H79  LIG A   1      13.698  15.123   3.433  1.00 20.00    +0.043 H 
ATOM     80 H80  LIG A   1      11.642  15.864   2.549  1.00 20.00    +0.118 HD
ATOM     81 H81  LIG A   1      11.675  14.766   1.343  1.00 20.00    +0.118 HD
ATOM     82 H82  LIG A   1      17.255  14.019   9.552  1.00 20.00    +0.064 H 
ATOM     83 H83  LIG A   1      18.674  15.592  10.724  1.00 20.00    +0.063 H 
ATOM     84 H84  LIG A   1      21.224  21.253  11.158  1.00 20.00    +0.050 H 
ATOM     85 H85  LIG A   1      19.551  20.895  11.506  1.00 20.00    +0.050 H 
ATOM     86 H86  LIG A   1      20.136  19.412  13.252  1.00 20.00    +0.029 H 
ATOM     87 H87  LIG A   1      21.179  20.793  13.417  1.00 20.00    +0.029 H 
ATOM     88 H88  LIG A   1      22.267  18.737  13.995  1.00 20.00    +0.028 H 
ATOM     89 H89  LIG A   1      21.970  18.000  12.473  1.00 20.00    +0.028 H 
ATOM     90 H90  LIG A   1      23.796  20.404  13.029  1.00 20.00    +0.047 H 
ATOM     91 H91  LIG A   1      25.445  17.658  14.349  1.00 20.00    +0.296 HD
ATOM     92 H92  LIG A   1      21.053  22.010   9.419  1.00 20.00    +0.057 H 
ATOM     93 H93  LIG A   1      18.627  21.681   7.830  1.00 20.00    +0.119 HD
ATOM     94 H94  LIG A   1      18.621  21.812   9.448  1.00 20.00    +0.119 HD
ATOM     95 H95  LIG A   1      18.137  15.349   5.954  1.00 20.00    +0.293 HD
ATOM     96 H96  LIG A   1      20.348  15.912   5.970  1.00 20.00    +0.066 H 
ATOM     97 H97  LIG A   1      22.095  17.191   7.165  1.00 20.00    +0.063 H 
ATOM     98 H98  LIG A   1      21.509  18.552   9.165  1.00 20.00    +0.066 H 
ATOM     99 H99  LIG A   1      18.146  18.642  10.293  1.00 20.00    +0.293 HD
ATOM    100 H100 LIG A   1      16.655  16.797   8.253  1.00 20.00    +0.293 HD
ENDROOT
TORSDOF 0
                                                                                                       
ENDMDL
MODEL 2
REMARK VINA RESULT:   -12.105      3.443      9.353
REMARK INTER + INTRA:         -12.105
REMARK INTER:                 -12.105
REMARK INTRA:                   0.000
REMARK UNBOUND:                 0.000
ROOT
ATOM      1 C1   LIG A   1      17.968  13.924  10.972  1.00 20.00    -0.060 C 
ATOM      2 C2   LIG A   1      18.856  15.120  10.582  1.00 20.00    -0.016 C 
ATOM      3 C3   LIG A   1      20.357  14.668  10.637  1.00 20.00    -0.023 C 
ATOM      4 C4   LIG A   1      21.023  14.529   9.292  1.00 20.00    -0.044 A 
ATOM      5 C5   LIG A   1      20.676  13.497   8.418  1.00 20.00    -0.058 A 
ATOM      6 C6   LIG A   1      20.964  13.617   7.060  1.00 20.00    -0.054 A 
ATOM      7 C7   LIG A   1      21.566  14.787   6.560  1.00 20.00    +0.009 A 
ATOM      8 C8   LIG A   1      22.049  15.743   7.473  1.00 20.00    +0.130 A 
ATOM      9 C9   LIG A   1      21.840  15.571   8.840  1.00 20.00    -0.016 A 
ATOM     10 O10  LIG A   1      22.619  16.893   6.972  1.00 20.00    -0.464 OA
ATOM     11 C11  LIG A   1      22.415  18.084   7.639  1.00 20.00    +0.104 C 
ATOM     12 C12  LIG A   1      21.287  18.824   7.714  1.00 20.00    +0.082 C 
ATOM     13 C13  LIG A   1      21.363  20.151   8.364  1.00 20.00    -0.010 A 
ATOM     14 C14  LIG A   1      21.772  20.270   9.698  1.00 20.00    -0.052 A 
ATOM     15 C15  LIG A   1      21.859  21.527  10.309  1.00 20.00    -0.038 A 
ATOM     16 C16  LIG A   1      21.557  22.703   9.610  1.00 20.00    +0.034 A 
ATOM     17 N17  LIG A   1      21.601  23.915  10.307  1.00 20.00    -0.385 NA
ATOM     18 C18  LIG A   1      21.492  25.178   9.583  1.00 20.00    +0.016 C 
ATOM     19 C19  LIG A   1      21.597  26.365  10.546  1.00 20.00    -0.023 C 
ATOM     20 C20  LIG A   1      20.367  26.544  11.449  1.00 20.00    -0.003 C 
ATOM     21 N21  LIG A   1      20.111  25.439  12.379  1.00 20.00    -0.317 NA
ATOM     22 C22  LIG A   1      21.021  25.391  13.523  1.00 20.00    -0.005 C 
ATOM     23 C23  LIG A   1      20.743  26.442  14.604  1.00 20.00    -0.039 C 
ATOM     24 C24  LIG A   1      19.510  26.178  15.479  1.00 20.00    -0.040 C 
ATOM     25 C25  LIG A   1      18.181  26.155  14.726  1.00 20.00    -0.008 C 
ATOM     26 N26  LIG A   1      17.071  26.122  15.681  1.00 20.00    -0.330 NA
ATOM     27 C27  LIG A   1      21.102  22.572   8.295  1.00 20.00    -0.038 A 
ATOM     28 C28  LIG A   1      21.023  21.318   7.673  1.00 20.00    -0.052 A 
ATOM     29 C29  LIG A   1      20.025  18.390   7.016  1.00 20.00    +0.264 C 
ATOM     30 O30  LIG A   1      19.548  19.082   6.116  1.00 20.00    -0.268 OA
ATOM     31 N31  LIG A   1      19.465  17.183   7.418  1.00 20.00    -0.277 NA
ATOM     32 C32  LIG A   1      18.783  16.397   6.382  1.00 20.00    +0.029 C 
ATOM     33 C33  LIG A   1      19.311  16.425   4.928  1.00 20.00    -0.034 C 
ATOM     34 C34  LIG A   1      20.817  16.312   4.625  1.00 20.00    -0.034 C 
ATOM     35 C35  LIG A   1      21.560  15.020   5.056  1.00 20.00    +0.085 C 
ATOM     36 C36  LIG A   1      22.971  14.975   4.471  1.00 20.00    +0.311 C 
ATOM     37 O37  LIG A   1      24.022  14.767   5.055  1.00 20.00    -0.252 OA
ATOM     38 O38  LIG A   1      22.983  15.122   3.128  1.00 20.00    -0.481 OA
ATOM     39 C39  LIG A   1      19.199  16.995   8.787  1.00 20.00    +0.246 C 
ATOM     40 O40  LIG A   1      19.572  17.786   9.661  1.00 20.00    -0.273 OA
ATOM     41 C41  LIG A   1      18.356  15.760   9.238  1.00 20.00    +0.088 C 
ATOM     42 N42  LIG A   1      16.954  16.228   9.395  1.00 20.00    -0.320 NA
ATOM     43 O43  LIG A   1      20.264  21.860  10.730  1.00 20.00    -0.504 OA
ATOM     44 C44  LIG A   1      20.490  20.648  10.138  1.00 20.00    +0.161 A 
ATOM     45 C45  LIG A   1      21.548  19.828  10.518  1.00 20.00    -0.016 A 
ATOM     46 C46  LIG A   1      21.729  18.598   9.872  1.00 20.00    -0.055 A 
ATOM     47 C47  LIG A   1      20.857  18.198   8.854  1.00 20.00    -0.016 A 
ATOM     48 C48  LIG A   1      19.809  19.031   8.487  1.00 20.00    +0.161 A 
ATOM     49 O49  LIG A   1      18.958  18.644   7.492  1.00 20.00    -0.504 OA
ATOM     50 C50  LIG A   1      19.624  20.249   9.126  1.00 20.00    +0.200 A 
ATOM     51 O51  LIG A   1      18.583  21.052   8.745  1.00 20.00    -0.502 OA
ATOM     52 H52  LIG A   1      16.922  14.220  11.095  1.00 20.00    +0.023 H 
ATOM     53 H53  LIG A   1      18.009  13.135  10.214  1.00 20.00    +0.023 H 
ATOM     54 H54  LIG A   1      18.291  13.495  11.927  1.00 20.00    +0.023 H 
ATOM     55 H55  LIG A   1      18.736  15.865  11.384  1.00 20.00    +0.032 H 
ATOM     56 H56  LIG A   1      20.910  15.407  11.231  1.00 20.00    +0.032 H 
ATOM     57 H57  LIG A   1      20.471  13.726  11.187  1.00 20.00    +0.032 H 
ATOM     58 H58  LIG A   1      20.094  12.647   8.768  1.00 20.00    +0.063 H 
ATOM     59 H59  LIG A   1      20.620  12.837   6.384  1.00 20.00    +0.063 H 
ATOM     60 H60  LIG A   1      22.160  16.340   9.542  1.00 20.00    +0.067 H 
ATOM     61 H61  LIG A   1      23.364  18.417   8.045  1.00 20.00    +0.105 H 
ATOM     62 H62  LIG A   1      21.994  19.382  10.286  1.00 20.00    +0.063 H 
ATOM     63 H63  LIG A   1      22.154  21.576  11.355  1.00 20.00    +0.064 H 
ATOM     64 H64  LIG A   1      22.350  23.912  10.998  1.00 20.00    +0.160 HD
ATOM     65 H65  LIG A   1      22.303  25.251   8.848  1.00 20.00    +0.049 H 
ATOM     66 H66  LIG A   1      20.537  25.239   9.050  1.00 20.00    +0.049 H 
ATOM     67 H67  LIG A   1      21.699  27.277   9.944  1.00 20.00    +0.030 H 
ATOM     68 H68  LIG A   1      22.509  26.288  11.147  1.00 20.00    +0.030 H 
ATOM     69 H69  LIG A   1      19.482  26.640  10.809  1.00 20.00    +0.043 H 
ATOM     70 H70  LIG A   1      20.444  27.496  11.984  1.00 20.00    +0.043 H 
ATOM     71 H71  LIG A   1      20.215  24.564  11.845  1.00 20.00    +0.122 HD
ATOM     72 H72  LIG A   1      20.936  24.397  13.981  1.00 20.00    +0.043 H 
ATOM     73 H73  LIG A   1      22.062  25.477  13.193  1.00 20.00    +0.043 H 
ATOM     74 H74  LIG A   1      20.676  27.446  14.172  1.00 20.00    +0.028 H 
ATOM     75 H75  LIG A   1      21.612  26.465  15.273  1.00 20.00    +0.028 H 
ATOM     76 H76  LIG A   1      19.480  26.964  16.246  1.00 20.00    +0.028 H 
ATOM     77 H77  LIG A   1      19.644  25.230  16.015  1.00 20.00    +0.028 H 
ATOM     78 H78  LIG A   1      18.082  27.039  14.087  1.00 20.00    +0.043 H 
ATOM     79 H79  LIG A   1      18.110  25.263  14.096  1.00 20.00    +0.043 H 
ATOM     80 H80  LIG A   1      16.193  26.128  15.161  1.00 20.00    +0.118 HD
ATOM     81 H81  LIG A   1      17.078  26.972  16.241  1.00 20.00    +0.118 HD
ATOM     82 H82  LIG A   1      20.802  23.438   7.714  1.00 20.00    +0.064 H 
ATOM     83 H83  LIG A   1      20.683  21.272   6.640  1.00 20.00    +0.063 H 
ATOM     84 H84  LIG A   1      18.775  15.347   6.672  1.00 20.00    +0.050 H 
ATOM     85 H85  LIG A   1      17.734  16.718   6.377  1.00 20.00    +0.050 H 
ATOM     86 H86  LIG A   1      18.956  17.350   4.455  1.00 20.00    +0.029 H 
ATOM     87 H87  LIG A   1      18.797  15.622   4.382  1.00 20.00    +0.029 H 
ATOM     88 H88  LIG A   1      20.901  16.393   3.533  1.00 20.00    +0.028 H 
ATOM     89 H89  LIG A   1      21.337  17.204   4.983  1.00 20.00    +0.028 H 
ATOM     90 H90  LIG A   1      21.037  14.175   4.587  1.00 20.00    +0.047 H 
ATOM     91 H91  LIG A   1      23.932  15.051   2.898  1.00 20.00    +0.296 HD
ATOM     92 H92  LIG A   1      18.338  14.974   8.487  1.00 20.00    +0.057 H 
ATOM     93 H93  LIG A   1      16.934  16.911  10.160  1.00 20.00    +0.119 HD
ATOM     94 H94  LIG A   1      16.665  16.748   8.567  1.00 20.00    +0.119 HD
ATOM     95 H95  LIG A   1      20.972  22.015  11.380  1.00 20.00    +0.293 HD
ATOM     96 H96  LIG A   1      22.236  20.118  11.306  1.00 20.00    +0.066 H 
ATOM     97 H97  LIG A   1      22.551  17.949  10.161  1.00 20.00    +0.063 H 
ATOM     98 H98  LIG A   1      20.995  17.246   8.349  1.00 20.00    +0.066 H 
ATOM     99 H99  LIG A   1      18.319  19.381   7.419  1.00 20.00    +0.293 HD
ATOM    100 H100 LIG A   1      18.661  21.835   9.329  1.00 20.00    +0.293 HD
ENDROOT
TORSDOF 0
                                                                                                       
ENDMDL
MODEL 3
REMARK VINA RESULT:   -10.870      2.761      4.071
REMARK INTER + INTRA:         -10.870
REMARK INTER:                 -10.870
REMARK INTRA:                   0.000
REMARK UNBOUND:                 0.000
ROOT
ATOM      1 C1   LIG A   1      22.811  25.576   5.951  1.00 20.00    -0.060 C 
ATOM      2 C2   LIG A   1      22.669  24.292   6.790  1.00 20.00    -0.016 C 
ATOM      3 C3   LIG A   1      24.103  23.763   7.140  1.00 20.00    -0.023 C 
ATOM      4 C4   LIG A   1      24.499  23.924   8.586  1.00 20.00    -0.044 A 
ATOM      5 C5   LIG A   1      24.762  25.184   9.126  1.00 20.00    -0.058 A 
ATOM      6 C6   LIG A   1      24.704  25.369  10.505  1.00 20.00    -0.054 A 
ATOM      7 C7   LIG A   1      24.346  24.304  11.353  1.00 20.00    +0.009 A 
ATOM      8 C8   LIG A   1      24.241  23.011  10.807  1.00 20.00    +0.130 A 
ATOM      9 C9   LIG A   1      24.392  22.818   9.435  1.00 20.00    -0.016 A 
ATOM     10 O10  LIG A   1      23.871  21.979  11.642  1.00 20.00    -0.464 OA
ATOM     11 C11  LIG A   1      23.059  20.980  11.147  1.00 20.00    +0.104 C 
ATOM     12 C12  LIG A   1      21.744  21.037  10.840  1.00 20.00    +0.082 C 
ATOM     13 C13  LIG A   1      21.056  19.780  10.471  1.00 20.00    -0.010 A 
ATOM     14 C14  LIG A   1      21.487  19.026   9.373  1.00 20.00    -0.052 A 
ATOM     15 C15  LIG A   1      20.847  17.828   9.033  1.00 20.00    -0.038 A 
ATOM     16 C16  LIG A   1      19.769  17.337   9.782  1.00 20.00    +0.034 A 
ATOM     17 N17  LIG A   1      19.136  16.169   9.340  1.00 20.00    -0.385 NA
ATOM     18 C18  LIG A   1      18.146  15.511  10.187  1.00 20.00    +0.016 C 
ATOM     19 C19  LIG A   1      17.614  14.242   9.512  1.00 20.00    -0.023 C 
ATOM     20 C20  LIG A   1      16.701  14.515   8.308  1.00 20.00    -0.003 C 
ATOM     21 N21  LIG A   1      17.343  15.195   7.180  1.00 20.00    -0.317 NA
ATOM     22 C22  LIG A   1      18.233  14.343   6.390  1.00 20.00    -0.005 C 
ATOM     23 C23  LIG A   1      17.514  13.357   5.462  1.00 20.00    -0.039 C 
ATOM     24 C24  LIG A   1      16.874  13.975   4.211  1.00 20.00    -0.040 C 
ATOM     25 C25  LIG A   1      15.770  14.991   4.491  1.00 20.00    -0.008 C 
ATOM     26 N26  LIG A   1      15.088  15.339   3.242  1.00 20.00    -0.330 NA
ATOM     27 C27  LIG A   1      19.313  18.120  10.845  1.00 20.00    -0.038 A 
ATOM     28 C28  LIG A   1      19.957  19.315  11.198  1.00 20.00    -0.052 A 
ATOM     29 C29  LIG A   1      20.958  22.309  11.022  1.00 20.00    +0.264 C 
ATOM     30 O30  LIG A   1      20.026  22.348  11.825  1.00 20.00    -0.268 OA
ATOM     31 N31  LIG A   1      21.358  23.410  10.274  1.00 20.00    -0.277 NA
ATOM     32 C32  LIG A   1      21.187  24.728  10.900  1.00 20.00    +0.029 C 
ATOM     33 C33  LIG A   1      21.355  24.877  12.430  1.00 20.00    -0.034 C 
ATOM     34 C34  LIG A   1      22.527  24.203  13.171  1.00 20.00    -0.034 C 
ATOM     35 C35  LIG A   1      23.973  24.618  12.795  1.00 20.00    +0.085 C 
ATOM     36 C36  LIG A   1      24.986  24.039  13.780  1.00 20.00    +0.311 C 
ATOM     37 O37  LIG A   1      26.002  23.409  13.533  1.00 20.00    -0.252 OA
ATOM     38 O38  LIG A   1      24.705  24.356  15.063  1.00 20.00    -0.481 OA
ATOM     39 C39  LIG A   1      21.477  23.261   8.880  1.00 20.00    +0.246 C 
ATOM     40 O40  LIG A   1      21.387  22.167   8.309  1.00 20.00    -0.273 OA
ATOM     41 C41  LIG A   1      21.686  24.528   7.992  1.00 20.00    +0.088 C 
ATOM     42 N42  LIG A   1      20.348  24.920   7.477  1.00 20.00    -0.320 NA
ATOM     43 O43  LIG A   1      19.486  18.348   8.189  1.00 20.00    -0.504 OA
ATOM     44 C44  LIG A   1      20.339  19.327   8.617  1.00 20.00    +0.161 A 
ATOM     45 C45  LIG A   1      21.718  19.222   8.464  1.00 20.00    -0.016 A 
ATOM     46 C46  LIG A   1      22.540  20.258   8.926  1.00 20.00    -0.055 A 
ATOM     47 C47  LIG A   1      21.982  21.386   9.537  1.00 20.00    -0.016 A 
ATOM     48 C48  LIG A   1      20.605  21.471   9.683  1.00 20.00    +0.161 A 
ATOM     49 O49  LIG A   1      20.058  22.570  10.281  1.00 20.00    -0.504 OA
ATOM     50 C50  LIG A   1      19.785  20.449   9.225  1.00 20.00    +0.200 A 
ATOM     51 O51  LIG A   1      18.430  20.557   9.382  1.00 20.00    -0.502 OA
ATOM     52 H52  LIG A   1      21.847  25.907   5.553  1.00 20.00    +0.023 H 
ATOM     53 H53  LIG A   1      23.231  26.394   6.544  1.00 20.00    +0.023 H 
ATOM     54 H54  LIG A   1      23.468  25.408   5.091  1.00 20.00    +0.023 H 
ATOM     55 H55  LIG A   1      22.224  23.538   6.123  1.00 20.00    +0.032 H 
ATOM     56 H56  LIG A   1      24.142  22.696   6.879  1.00 20.00    +0.032 H 
ATOM     57 H57  LIG A   1      24.868  24.232   6.509  1.00 20.00    +0.032 H 
ATOM     58 H58  LIG A   1      24.910  26.045   8.476  1.00 20.00    +0.063 H 
ATOM     59 H59  LIG A   1      24.839  26.374  10.902  1.00 20.00    +0.063 H 
ATOM     60 H60  LIG A   1      24.251  21.827   9.005  1.00 20.00    +0.067 H 
ATOM     61 H61  LIG A   1      23.628  20.056  11.122  1.00 20.00    +0.105 H 
ATOM     62 H62  LIG A   1      22.306  19.380   8.750  1.00 20.00    +0.063 H 
ATOM     63 H63  LIG A   1      21.193  17.284   8.157  1.00 20.00    +0.064 H 
ATOM     64 H64  LIG A   1      19.808  15.522   8.931  1.00 20.00    +0.160 HD
ATOM     65 H65  LIG A   1      18.607  15.232  11.143  1.00 20.00    +0.049 H 
ATOM     66 H66  LIG A   1      17.304  16.181  10.393  1.00 20.00    +0.049 H 
ATOM     67 H67  LIG A   1      17.026  13.689  10.255  1.00 20.00    +0.030 H 
ATOM     68 H68  LIG A   1      18.444  13.587   9.227  1.00 20.00    +0.030 H 
ATOM     69 H69  LIG A   1      15.874  15.152   8.642  1.00 20.00    +0.043 H 
ATOM     70 H70  LIG A   1      16.234  13.578   7.986  1.00 20.00    +0.043 H 
ATOM     71 H71  LIG A   1      17.899  15.969   7.569  1.00 20.00    +0.122 HD
ATOM     72 H72  LIG A   1      18.866  14.995   5.774  1.00 20.00    +0.043 H 
ATOM     73 H73  LIG A   1      18.920  13.793   7.042  1.00 20.00    +0.043 H 
ATOM     74 H74  LIG A   1      16.764  12.776   6.008  1.00 20.00    +0.028 H 
ATOM     75 H75  LIG A   1      18.258  12.628   5.115  1.00 20.00    +0.028 H 
ATOM     76 H76  LIG A   1      16.466  13.149   3.612  1.00 20.00    +0.028 H 
ATOM     77 H77  LIG A   1      17.657  14.442   3.599  1.00 20.00    +0.028 H 
ATOM     78 H78  LIG A   1      15.040  14.586   5.200  1.00 20.00    +0.043 H 
ATOM     79 H79  LIG A   1      16.188  15.910   4.913  1.00 20.00    +0.043 H 
ATOM     80 H80  LIG A   1      14.341  16.002   3.450  1.00 20.00    +0.118 HD
ATOM     81 H81  LIG A   1      14.637  14.510   2.858  1.00 20.00    +0.118 HD
ATOM     82 H82  LIG A   1      18.450  17.824  11.434  1.00 20.00    +0.064 H 
ATOM     83 H83  LIG A   1      19.576  19.878  12.049  1.00 20.00    +0.063 H 
ATOM     84 H84  LIG A   1      21.888  25.433  10.456  1.00 20.00    +0.050 H 
ATOM     85 H85  LIG A   1      20.186  25.084  10.624  1.00 20.00    +0.050 H 
ATOM     86 H86  LIG A   1      20.430  24.531  12.909  1.00 20.00    +0.029 H 
ATOM     87 H87  LIG A   1      21.394  25.953  12.647  1.00 20.00    +0.029 H 
ATOM     88 H88  LIG A   1      22.378  24.448  14.232  1.00 20.00    +0.028 H 
ATOM     89 H89  LIG A   1      22.407  23.118  13.146  1.00 20.00    +0.028 H 
ATOM     90 H90  LIG A   1      24.042  25.706  12.930  1.00 20.00    +0.047 H 
ATOM     91 H91  LIG A   1      25.436  23.944  15.567  1.00 20.00    +0.296 HD
ATOM     92 H92  LIG A   1      22.060  25.375   8.560  1.00 20.00    +0.057 H 
ATOM     93 H93  LIG A   1      20.012  24.168   6.866  1.00 20.00    +0.119 HD
ATOM     94 H94  LIG A   1      19.677  24.960   8.244  1.00 20.00    +0.119 HD
ATOM     95 H95  LIG A   1      20.021  17.617   7.831  1.00 20.00    +0.293 HD
ATOM     96 H96  LIG A   1      22.172  18.356   7.993  1.00 20.00    +0.066 H 
ATOM     97 H97  LIG A   1      23.619  20.188   8.811  1.00 20.00    +0.063 H 
ATOM     98 H98  LIG A   1      22.617  22.191   9.898  1.00 20.00    +0.066 H 
ATOM     99 H99  LIG A   1      19.094  22.400  10.267  1.00 20.00    +0.293 HD
ATOM    100 H100 LIG A   1      18.079  19.732   8.987  1.00 20.00    +0.293 HD
ENDROOT
TORSDOF 0
                                                                                                       
ENDMDL
MODEL 4
REMARK VINA RESULT:   -10.589      6.589      9.236
REMARK INTER + INTRA:         -10.589
REMARK INTER:                 -10.589
REMARK INTRA:                   0.000
REMARK UNBOUND:                 0.000
ROOT
ATOM      1 C1   LIG A   1      18.118  30.198   9.624  1.00 20.00    -0.060 C 
ATOM      2 C2   LIG A   1      18.973  29.046  10.182  1.00 20.00    -0.016 C 
ATOM      3 C3   LIG A   1      20.462  29.529  10.277  1.00 20.00    -0.023 C 
ATOM      4 C4   LIG A   1      20.962  29.756  11.681  1.00 20.00    -0.044 A 
ATOM      5 C5   LIG A   1      20.497  30.826  12.449  1.00 20.00    -0.058 A 
ATOM      6 C6   LIG A   1      20.624  30.786  13.836  1.00 20.00    -0.054 A 
ATOM      7 C7   LIG A   1      21.183  29.659  14.469  1.00 20.00    +0.009 A 
ATOM      8 C8   LIG A   1      21.786  28.667  13.674  1.00 20.00    +0.130 A 
ATOM      9 C9   LIG A   1      21.737  28.760  12.284  1.00 20.00    -0.016 A 
ATOM     10 O10  LIG A   1      22.313  27.559  14.302  1.00 20.00    -0.464 OA
ATOM     11 C11  LIG A   1      22.209  26.330  13.684  1.00 20.00    +0.104 C 
ATOM     12 C12  LIG A   1      21.110  25.560  13.519  1.00 20.00    +0.082 C 
ATOM     13 C13  LIG A   1      21.285  24.202  12.958  1.00 20.00    -0.010 A 
ATOM     14 C14  LIG A   1      21.850  24.021  11.690  1.00 20.00    -0.052 A 
ATOM     15 C15  LIG A   1      22.031  22.736  11.166  1.00 20.00    -0.038 A 
ATOM     16 C16  LIG A   1      21.668  21.592  11.890  1.00 20.00    +0.034 A 
ATOM     17 N17  LIG A   1      21.815  20.345  11.272  1.00 20.00    -0.385 NA
ATOM     18 C18  LIG A   1      21.642  19.121  12.048  1.00 20.00    +0.016 C 
ATOM     19 C19  LIG A   1      21.880  17.887  11.172  1.00 20.00    -0.023 C 
ATOM     20 C20  LIG A   1      20.769  17.631  10.143  1.00 20.00    -0.003 C 
ATOM     21 N21  LIG A   1      20.606  18.677   9.129  1.00 20.00    -0.317 NA
ATOM     22 C22  LIG A   1      21.644  18.685   8.098  1.00 20.00    -0.005 C 
ATOM     23 C23  LIG A   1      21.513  17.570   7.053  1.00 20.00    -0.039 C 
ATOM     24 C24  LIG A   1      20.388  17.758   6.027  1.00 20.00    -0.040 C 
ATOM     25 C25  LIG A   1      18.980  17.791   6.616  1.00 20.00    -0.008 C 
ATOM     26 N26  LIG A   1      17.990  17.746   5.538  1.00 20.00    -0.330 NA
ATOM     27 C27  LIG A   1      21.059  21.783  13.132  1.00 20.00    -0.038 A 
ATOM     28 C28  LIG A   1      20.886  23.067  13.669  1.00 20.00    -0.052 A 
ATOM     29 C29  LIG A   1      19.767  26.001  14.038  1.00 20.00    +0.264 C 
ATOM     30 O30  LIG A   1      19.199  25.348  14.914  1.00 20.00    -0.268 OA
ATOM     31 N31  LIG A   1      19.239  27.172  13.506  1.00 20.00    -0.277 NA
ATOM     32 C32  LIG A   1      18.426  27.997  14.410  1.00 20.00    +0.029 C 
ATOM     33 C33  LIG A   1      18.778  28.060  15.915  1.00 20.00    -0.034 C 
ATOM     34 C34  LIG A   1      20.236  28.224  16.385  1.00 20.00    -0.034 C 
ATOM     35 C35  LIG A   1      21.003  29.508  15.972  1.00 20.00    +0.085 C 
ATOM     36 C36  LIG A   1      22.334  29.618  16.714  1.00 20.00    +0.311 C 
ATOM     37 O37  LIG A   1      23.443  29.818  16.246  1.00 20.00    -0.252 OA
ATOM     38 O38  LIG A   1      22.189  29.544  18.056  1.00 20.00    -0.481 OA
ATOM     39 C39  LIG A   1      19.133  27.280  12.108  1.00 20.00    +0.246 C 
ATOM     40 O40  LIG A   1      19.620  26.451  11.329  1.00 20.00    -0.273 OA
ATOM     41 C41  LIG A   1      18.329  28.468  11.492  1.00 20.00    +0.088 C 
ATOM     42 N42  LIG A   1      16.963  27.959  11.198  1.00 20.00    -0.320 NA
ATOM     43 O43  LIG A   1      20.502  22.343  10.581  1.00 20.00    -0.504 OA
ATOM     44 C44  LIG A   1      20.636  23.590  11.125  1.00 20.00    +0.161 A 
ATOM     45 C45  LIG A   1      21.718  24.413  10.826  1.00 20.00    -0.016 A 
ATOM     46 C46  LIG A   1      21.800  25.679  11.418  1.00 20.00    -0.055 A 
ATOM     47 C47  LIG A   1      20.807  26.113  12.303  1.00 20.00    -0.016 A 
ATOM     48 C48  LIG A   1      19.738  25.278  12.591  1.00 20.00    +0.161 A 
ATOM     49 O49  LIG A   1      18.769  25.698  13.456  1.00 20.00    -0.504 OA
ATOM     50 C50  LIG A   1      19.650  24.022  12.005  1.00 20.00    +0.200 A 
ATOM     51 O51  LIG A   1      18.585  23.217  12.306  1.00 20.00    -0.502 OA
ATOM     52 H52  LIG A   1      17.098  29.871   9.396  1.00 20.00    +0.023 H 
ATOM     53 H53  LIG A   1      18.055  31.027  10.335  1.00 20.00    +0.023 H 
ATOM     54 H54  LIG A   1      18.543  30.582   8.690  1.00 20.00    +0.023 H 
ATOM     55 H55  LIG A   1      18.961  28.257   9.415  1.00 20.00    +0.032 H 
ATOM     56 H56  LIG A   1      21.094  28.772   9.795  1.00 20.00    +0.032 H 
ATOM     57 H57  LIG A   1      20.625  30.442   9.692  1.00 20.00    +0.032 H 
ATOM     58 H58  LIG A   1      19.946  31.641  11.986  1.00 20.00    +0.063 H 
ATOM     59 H59  LIG A   1      20.190  31.594  14.422  1.00 20.00    +0.063 H 
ATOM     60 H60  LIG A   1      22.151  27.962  11.668  1.00 20.00    +0.067 H 
ATOM     61 H61  LIG A   1      23.205  25.997  13.411  1.00 20.00    +0.105 H 
ATOM     62 H62  LIG A   1      22.126  24.880  11.083  1.00 20.00    +0.063 H 
ATOM     63 H63  LIG A   1      22.448  22.636  10.165  1.00 20.00    +0.064 H 
ATOM     64 H64  LIG A   1      22.640  20.329  10.675  1.00 20.00    +0.160 HD
ATOM     65 H65  LIG A   1      22.362  19.107  12.876  1.00 20.00    +0.049 H 
ATOM     66 H66  LIG A   1      20.632  19.067  12.468  1.00 20.00    +0.049 H 
ATOM     67 H67  LIG A   1      21.926  17.011  11.833  1.00 20.00    +0.030 H 
ATOM     68 H68  LIG A   1      22.856  17.952  10.679  1.00 20.00    +0.030 H 
ATOM     69 H69  LIG A   1      19.816  17.549  10.679  1.00 20.00    +0.043 H 
ATOM     70 H70  LIG A   1      20.924  16.653   9.675  1.00 20.00    +0.043 H 
ATOM     71 H71  LIG A   1      20.631  19.582   9.621  1.00 20.00    +0.122 HD
ATOM     72 H72  LIG A   1      21.597  19.651   7.578  1.00 20.00    +0.043 H 
ATOM     73 H73  LIG A   1      22.640  18.641   8.553  1.00 20.00    +0.043 H 
ATOM     74 H74  LIG A   1      21.413  16.590   7.531  1.00 20.00    +0.028 H 
ATOM     75 H75  LIG A   1      22.455  17.531   6.493  1.00 20.00    +0.028 H 
ATOM     76 H76  LIG A   1      20.462  16.932   5.307  1.00 20.00    +0.028 H 
ATOM     77 H77  LIG A   1      20.569  18.679   5.457  1.00 20.00    +0.028 H 
ATOM     78 H78  LIG A   1      18.821  16.940   7.288  1.00 20.00    +0.043 H 
ATOM     79 H79  LIG A   1      18.819  18.713   7.182  1.00 20.00    +0.043 H 
ATOM     80 H80  LIG A   1      17.057  17.747   5.950  1.00 20.00    +0.118 HD
ATOM     81 H81  LIG A   1      18.077  16.867   5.031  1.00 20.00    +0.118 HD
ATOM     82 H82  LIG A   1      20.706  20.943  13.723  1.00 20.00    +0.064 H 
ATOM     83 H83  LIG A   1      20.425  23.161  14.651  1.00 20.00    +0.063 H 
ATOM     84 H84  LIG A   1      18.434  29.029  14.062  1.00 20.00    +0.050 H 
ATOM     85 H85  LIG A   1      17.389  27.652  14.309  1.00 20.00    +0.050 H 
ATOM     86 H86  LIG A   1      18.386  27.153  16.394  1.00 20.00    +0.029 H 
ATOM     87 H87  LIG A   1      18.190  28.879  16.350  1.00 20.00    +0.029 H 
ATOM     88 H88  LIG A   1      20.192  28.204  17.483  1.00 20.00    +0.028 H 
ATOM     89 H89  LIG A   1      20.809  27.326  16.142  1.00 20.00    +0.028 H 
ATOM     90 H90  LIG A   1      20.413  30.364  16.328  1.00 20.00    +0.047 H 
ATOM     91 H91  LIG A   1      23.103  29.649  18.391  1.00 20.00    +0.296 HD
ATOM     92 H92  LIG A   1      18.209  29.293  12.190  1.00 20.00    +0.057 H 
ATOM     93 H93  LIG A   1      17.045  27.236  10.476  1.00 20.00    +0.119 HD
ATOM     94 H94  LIG A   1      16.587  27.478  12.015  1.00 20.00    +0.119 HD
ATOM     95 H95  LIG A   1      21.285  22.169  10.027  1.00 20.00    +0.293 HD
ATOM     96 H96  LIG A   1      22.499  24.097  10.142  1.00 20.00    +0.066 H 
ATOM     97 H97  LIG A   1      22.640  26.331  11.192  1.00 20.00    +0.063 H 
ATOM     98 H98  LIG A   1      20.869  27.095  12.766  1.00 20.00    +0.066 H 
ATOM     99 H99  LIG A   1      18.138  24.951  13.495  1.00 20.00    +0.293 HD
ATOM    100 H100 LIG A   1      18.744  22.406  11.780  1.00 20.00    +0.293 HD
ENDROOT
TORSDOF 0
                                                                                                       
ENDMDL
MODEL 5
REMARK VINA RESULT:   -10.368      4.756      7.857
REMARK INTER + INTRA:         -10.368
REMARK INTER:                 -10.368
REMARK INTRA:                   0.000
REMARK UNBOUND:                 0.000
ROOT
ATOM      1 C1   LIG A   1      25.124  23.959  15.737  1.00 20.00    -0.060 C 
ATOM      2 C2   LIG A   1      23.945  23.453  14.886  1.00 20.00    -0.016 C 
ATOM      3 C3   LIG A   1      22.638  23.525  15.750  1.00 20.00    -0.023 C 
ATOM      4 C4   LIG A   1      21.668  24.603  15.337  1.00 20.00    -0.044 A 
ATOM      5 C5   LIG A   1      21.958  25.953  15.545  1.00 20.00    -0.058 A 
ATOM      6 C6   LIG A   1      21.289  26.923  14.802  1.00 20.00    -0.054 A 
ATOM      7 C7   LIG A   1      20.353  26.551  13.819  1.00 20.00    +0.009 A 
ATOM      8 C8   LIG A   1      19.961  25.202  13.736  1.00 20.00    +0.130 A 
ATOM      9 C9   LIG A   1      20.569  24.246  14.548  1.00 20.00    -0.016 A 
ATOM     10 O10  LIG A   1      19.060  24.844  12.757  1.00 20.00    -0.464 OA
ATOM     11 C11  LIG A   1      19.200  23.620  12.136  1.00 20.00    +0.104 C 
ATOM     12 C12  LIG A   1      20.135  23.232  11.241  1.00 20.00    +0.082 C 
ATOM     13 C13  LIG A   1      19.980  21.909  10.596  1.00 20.00    -0.010 A 
ATOM     14 C14  LIG A   1      19.940  20.740  11.365  1.00 20.00    -0.052 A 
ATOM     15 C15  LIG A   1      19.777  19.490  10.756  1.00 20.00    -0.038 A 
ATOM     16 C16  LIG A   1      19.636  19.365   9.367  1.00 20.00    +0.034 A 
ATOM     17 N17  LIG A   1      19.547  18.078   8.826  1.00 20.00    -0.385 NA
ATOM     18 C18  LIG A   1      19.200  17.900   7.419  1.00 20.00    +0.016 C 
ATOM     19 C19  LIG A   1      19.132  16.411   7.062  1.00 20.00    -0.023 C 
ATOM     20 C20  LIG A   1      20.502  15.719   7.022  1.00 20.00    -0.003 C 
ATOM     21 N21  LIG A   1      21.218  15.677   8.300  1.00 20.00    -0.317 NA
ATOM     22 C22  LIG A   1      20.687  14.706   9.257  1.00 20.00    -0.005 C 
ATOM     23 C23  LIG A   1      21.038  13.246   8.946  1.00 20.00    -0.039 C 
ATOM     24 C24  LIG A   1      22.492  12.843   9.231  1.00 20.00    -0.040 C 
ATOM     25 C25  LIG A   1      23.538  13.591   8.408  1.00 20.00    -0.008 C 
ATOM     26 N26  LIG A   1      24.852  12.972   8.597  1.00 20.00    -0.330 NA
ATOM     27 C27  LIG A   1      19.728  20.531   8.603  1.00 20.00    -0.038 A 
ATOM     28 C28  LIG A   1      19.879  21.788   9.207  1.00 20.00    -0.052 A 
ATOM     29 C29  LIG A   1      21.216  24.177  10.787  1.00 20.00    +0.264 C 
ATOM     30 O30  LIG A   1      21.280  24.522   9.607  1.00 20.00    -0.268 OA
ATOM     31 N31  LIG A   1      22.092  24.647  11.760  1.00 20.00    -0.277 NA
ATOM     32 C32  LIG A   1      22.604  26.012  11.580  1.00 20.00    +0.029 C 
ATOM     33 C33  LIG A   1      21.701  27.089  10.934  1.00 20.00    -0.034 C 
ATOM     34 C34  LIG A   1      20.223  27.239  11.342  1.00 20.00    -0.034 C 
ATOM     35 C35  LIG A   1      19.898  27.600  12.815  1.00 20.00    +0.085 C 
ATOM     36 C36  LIG A   1      18.419  27.942  12.986  1.00 20.00    +0.311 C 
ATOM     37 O37  LIG A   1      17.633  27.495  13.805  1.00 20.00    -0.252 OA
ATOM     38 O38  LIG A   1      18.009  28.914  12.142  1.00 20.00    -0.481 OA
ATOM     39 C39  LIG A   1      22.757  23.706  12.567  1.00 20.00    +0.246 C 
ATOM     40 O40  LIG A   1      22.491  22.498  12.554  1.00 20.00    -0.273 OA
ATOM     41 C41  LIG A   1      23.918  24.182  13.496  1.00 20.00    +0.088 C 
ATOM     42 N42  LIG A   1      25.188  23.922  12.768  1.00 20.00    -0.320 NA
ATOM     43 O43  LIG A   1      21.328  19.124  10.214  1.00 20.00    -0.504 OA
ATOM     44 C44  LIG A   1      21.192  20.299  10.900  1.00 20.00    +0.161 A 
ATOM     45 C45  LIG A   1      20.464  20.382  12.082  1.00 20.00    -0.016 A 
ATOM     46 C46  LIG A   1      20.359  21.616  12.737  1.00 20.00    -0.055 A 
ATOM     47 C47  LIG A   1      20.978  22.753  12.209  1.00 20.00    -0.016 A 
ATOM     48 C48  LIG A   1      21.698  22.651  11.027  1.00 20.00    +0.161 A 
ATOM     49 O49  LIG A   1      22.301  23.760  10.508  1.00 20.00    -0.504 OA
ATOM     50 C50  LIG A   1      21.807  21.430  10.375  1.00 20.00    +0.200 A 
ATOM     51 O51  LIG A   1      22.522  21.356   9.210  1.00 20.00    -0.502 OA
ATOM     52 H52  LIG A   1      26.084  23.793  15.238  1.00 20.00    +0.023 H 
ATOM     53 H53  LIG A   1      25.033  25.030  15.946  1.00 20.00    +0.023 H 
ATOM     54 H54  LIG A   1      25.169  23.429  16.695  1.00 20.00    +0.023 H 
ATOM     55 H55  LIG A   1      24.132  22.383  14.711  1.00 20.00    +0.032 H 
ATOM     56 H56  LIG A   1      22.135  22.551  15.682  1.00 20.00    +0.032 H 
ATOM     57 H57  LIG A   1      22.868  23.646  16.815  1.00 20.00    +0.032 H 
ATOM     58 H58  LIG A   1      22.770  26.249  16.205  1.00 20.00    +0.063 H 
ATOM     59 H59  LIG A   1      21.581  27.965  14.925  1.00 20.00    +0.063 H 
ATOM     60 H60  LIG A   1      20.309  23.193  14.442  1.00 20.00    +0.067 H 
ATOM     61 H61  LIG A   1      18.353  22.998  12.407  1.00 20.00    +0.105 H 
ATOM     62 H62  LIG A   1      20.068  20.787  12.444  1.00 20.00    +0.063 H 
ATOM     63 H63  LIG A   1      19.778  18.602  11.385  1.00 20.00    +0.064 H 
ATOM     64 H64  LIG A   1      19.033  17.455   9.448  1.00 20.00    +0.160 HD
ATOM     65 H65  LIG A   1      18.220  18.352   7.223  1.00 20.00    +0.049 H 
ATOM     66 H66  LIG A   1      19.940  18.385   6.773  1.00 20.00    +0.049 H 
ATOM     67 H67  LIG A   1      18.689  16.327   6.062  1.00 20.00    +0.030 H 
ATOM     68 H68  LIG A   1      18.454  15.887   7.745  1.00 20.00    +0.030 H 
ATOM     69 H69  LIG A   1      21.139  16.259   6.312  1.00 20.00    +0.043 H 
ATOM     70 H70  LIG A   1      20.389  14.713   6.603  1.00 20.00    +0.043 H 
ATOM     71 H71  LIG A   1      21.146  16.615   8.718  1.00 20.00    +0.122 HD
ATOM     72 H72  LIG A   1      21.089  14.952  10.248  1.00 20.00    +0.043 H 
ATOM     73 H73  LIG A   1      19.599  14.806   9.346  1.00 20.00    +0.043 H 
ATOM     74 H74  LIG A   1      20.783  12.990   7.912  1.00 20.00    +0.028 H 
ATOM     75 H75  LIG A   1      20.401  12.612   9.574  1.00 20.00    +0.028 H 
ATOM     76 H76  LIG A   1      22.575  11.765   9.033  1.00 20.00    +0.028 H 
ATOM     77 H77  LIG A   1      22.700  12.976  10.300  1.00 20.00    +0.028 H 
ATOM     78 H78  LIG A   1      23.280  13.573   7.344  1.00 20.00    +0.043 H 
ATOM     79 H79  LIG A   1      23.609  14.635   8.729  1.00 20.00    +0.043 H 
ATOM     80 H80  LIG A   1      25.534  13.471   8.025  1.00 20.00    +0.118 HD
ATOM     81 H81  LIG A   1      24.832  12.015   8.249  1.00 20.00    +0.118 HD
ATOM     82 H82  LIG A   1      19.679  20.500   7.519  1.00 20.00    +0.064 H 
ATOM     83 H83  LIG A   1      19.924  22.668   8.568  1.00 20.00    +0.063 H 
ATOM     84 H84  LIG A   1      22.900  26.417  12.547  1.00 20.00    +0.050 H 
ATOM     85 H85  LIG A   1      23.527  25.932  10.991  1.00 20.00    +0.050 H 
ATOM     86 H86  LIG A   1      21.721  26.942   9.846  1.00 20.00    +0.029 H 
ATOM     87 H87  LIG A   1      22.194  28.059  11.090  1.00 20.00    +0.029 H 
ATOM     88 H88  LIG A   1      19.827  28.045  10.709  1.00 20.00    +0.028 H 
ATOM     89 H89  LIG A   1      19.657  26.364  11.016  1.00 20.00    +0.028 H 
ATOM     90 H90  LIG A   1      20.429  28.535  13.043  1.00 20.00    +0.047 H 
ATOM     91 H91  LIG A   1      17.067  29.039  12.377  1.00 20.00    +0.296 HD
ATOM     92 H92  LIG A   1      23.884  25.251  13.687  1.00 20.00    +0.057 H 
ATOM     93 H93  LIG A   1      25.283  22.908  12.652  1.00 20.00    +0.119 HD
ATOM     94 H94  LIG A   1      25.129  24.294  11.820  1.00 20.00    +0.119 HD
ATOM     95 H95  LIG A   1      20.810  18.442  10.678  1.00 20.00    +0.293 HD
ATOM     96 H96  LIG A   1      19.976  19.512  12.511  1.00 20.00    +0.066 H 
ATOM     97 H97  LIG A   1      19.793  21.693  13.663  1.00 20.00    +0.063 H 
ATOM     98 H98  LIG A   1      20.897  23.712  12.714  1.00 20.00    +0.066 H 
ATOM     99 H99  LIG A   1      22.736  23.440   9.692  1.00 20.00    +0.293 HD
ATOM    100 H100 LIG A   1      22.455  20.414   8.950  1.00 20.00    +0.293 HD
ENDROOT
TORSDOF 0
                                                                                                       
ENDMDL
MODEL 6
REMARK VINA RESULT:   -10.214      3.597      6.632
REMARK INTER + INTRA:         -10.214
REMARK INTER:                 -10.214
REMARK INTRA:                   0.000
REMARK UNBOUND:                 0.000
ROOT
ATOM      1 C1   LIG A   1      22.406  23.533  15.065  1.00 20.00    -0.060 C 
ATOM      2 C2   LIG A   1      21.802  22.708  13.914  1.00 20.00    -0.016 C 
ATOM      3 C3   LIG A   1      20.500  23.426  13.414  1.00 20.00    -0.023 C 
ATOM      4 C4   LIG A   1      20.620  24.078  12.059  1.00 20.00    -0.044 A 
ATOM      5 C5   LIG A   1      21.401  25.221  11.874  1.00 20.00    -0.058 A 
ATOM      6 C6   LIG A   1      21.843  25.554  10.597  1.00 20.00    -0.054 A 
ATOM      7 C7   LIG A   1      21.542  24.727   9.499  1.00 20.00    +0.009 A 
ATOM      8 C8   LIG A   1      20.628  23.672   9.678  1.00 20.00    +0.130 A 
ATOM      9 C9   LIG A   1      20.114  23.400  10.945  1.00 20.00    -0.016 A 
ATOM     10 O10  LIG A   1      20.354  22.856   8.601  1.00 20.00    -0.464 OA
ATOM     11 C11  LIG A   1      20.148  21.510   8.820  1.00 20.00    +0.104 C 
ATOM     12 C12  LIG A   1      21.053  20.562   9.150  1.00 20.00    +0.082 C 
ATOM     13 C13  LIG A   1      20.609  19.150   9.177  1.00 20.00    -0.010 A 
ATOM     14 C14  LIG A   1      19.572  18.744  10.026  1.00 20.00    -0.052 A 
ATOM     15 C15  LIG A   1      19.142  17.412  10.039  1.00 20.00    -0.038 A 
ATOM     16 C16  LIG A   1      19.718  16.447   9.202  1.00 20.00    +0.034 A 
ATOM     17 N17  LIG A   1      19.281  15.123   9.322  1.00 20.00    -0.385 NA
ATOM     18 C18  LIG A   1      19.702  14.125   8.343  1.00 20.00    +0.016 C 
ATOM     19 C19  LIG A   1      19.079  12.761   8.659  1.00 20.00    -0.023 C 
ATOM     20 C20  LIG A   1      19.667  12.082   9.905  1.00 20.00    -0.003 C 
ATOM     21 N21  LIG A   1      19.450  12.799  11.166  1.00 20.00    -0.317 NA
ATOM     22 C22  LIG A   1      18.085  12.706  11.685  1.00 20.00    -0.005 C 
ATOM     23 C23  LIG A   1      17.735  11.357  12.323  1.00 20.00    -0.039 C 
ATOM     24 C24  LIG A   1      18.356  11.100  13.703  1.00 20.00    -0.040 C 
ATOM     25 C25  LIG A   1      19.883  11.060  13.722  1.00 20.00    -0.008 C 
ATOM     26 N26  LIG A   1      20.349  10.589  15.028  1.00 20.00    -0.330 NA
ATOM     27 C27  LIG A   1      20.785  16.850   8.395  1.00 20.00    -0.038 A 
ATOM     28 C28  LIG A   1      21.214  18.185   8.367  1.00 20.00    -0.052 A 
ATOM     29 C29  LIG A   1      22.508  20.905   9.328  1.00 20.00    +0.264 C 
ATOM     30 O30  LIG A   1      23.354  20.415   8.579  1.00 20.00    -0.268 OA
ATOM     31 N31  LIG A   1      22.824  21.805  10.340  1.00 20.00    -0.277 NA
ATOM     32 C32  LIG A   1      23.967  22.695  10.094  1.00 20.00    +0.029 C 
ATOM     33 C33  LIG A   1      24.257  23.192   8.658  1.00 20.00    -0.034 C 
ATOM     34 C34  LIG A   1      23.121  23.696   7.746  1.00 20.00    -0.034 C 
ATOM     35 C35  LIG A   1      22.308  24.936   8.200  1.00 20.00    +0.085 C 
ATOM     36 C36  LIG A   1      21.397  25.437   7.081  1.00 20.00    +0.311 C 
ATOM     37 O37  LIG A   1      20.203  25.683   7.135  1.00 20.00    -0.252 OA
ATOM     38 O38  LIG A   1      22.068  25.684   5.935  1.00 20.00    -0.481 OA
ATOM     39 C39  LIG A   1      22.360  21.536  11.640  1.00 20.00    +0.246 C 
ATOM     40 O40  LIG A   1      21.566  20.623  11.897  1.00 20.00    -0.273 OA
ATOM     41 C41  LIG A   1      22.896  22.389  12.833  1.00 20.00    +0.088 C 
ATOM     42 N42  LIG A   1      24.003  21.615  13.454  1.00 20.00    -0.320 NA
ATOM     43 O43  LIG A   1      20.285  16.650  11.011  1.00 20.00    -0.504 OA
ATOM     44 C44  LIG A   1      20.435  17.999  10.851  1.00 20.00    +0.161 A 
ATOM     45 C45  LIG A   1      19.360  18.878  10.950  1.00 20.00    -0.016 A 
ATOM     46 C46  LIG A   1      19.578  20.250  10.773  1.00 20.00    -0.055 A 
ATOM     47 C47  LIG A   1      20.861  20.734  10.496  1.00 20.00    -0.016 A 
ATOM     48 C48  LIG A   1      21.919  19.842  10.398  1.00 20.00    +0.161 A 
ATOM     49 O49  LIG A   1      23.172  20.312  10.125  1.00 20.00    -0.504 OA
ATOM     50 C50  LIG A   1      21.710  18.481  10.575  1.00 20.00    +0.200 A 
ATOM     51 O51  LIG A   1      22.771  17.623  10.473  1.00 20.00    -0.502 OA
ATOM     52 H52  LIG A   1      23.232  23.004  15.551  1.00 20.00    +0.023 H 
ATOM     53 H53  LIG A   1      22.785  24.495  14.708  1.00 20.00    +0.023 H 
ATOM     54 H54  LIG A   1      21.656  23.729  15.839  1.00 20.00    +0.023 H 
ATOM     55 H55  LIG A   1      21.469  21.758  14.359  1.00 20.00    +0.032 H 
ATOM     56 H56  LIG A   1      19.695  22.680  13.377  1.00 20.00    +0.032 H 
ATOM     57 H57  LIG A   1      20.153  24.175  14.136  1.00 20.00    +0.032 H 
ATOM     58 H58  LIG A   1      21.751  25.795  12.729  1.00 20.00    +0.063 H 
ATOM     59 H59  LIG A   1      22.511  26.407  10.483  1.00 20.00    +0.063 H 
ATOM     60 H60  LIG A   1      19.454  22.547  11.095  1.00 20.00    +0.067 H 
ATOM     61 H61  LIG A   1      19.113  21.279   8.588  1.00 20.00    +0.105 H 
ATOM     62 H62  LIG A   1      19.111  19.453  10.709  1.00 20.00    +0.063 H 
ATOM     63 H63  LIG A   1      18.352  17.128  10.732  1.00 20.00    +0.064 H 
ATOM     64 H64  LIG A   1      18.285  15.085   9.532  1.00 20.00    +0.160 HD
ATOM     65 H65  LIG A   1      19.379  14.434   7.341  1.00 20.00    +0.049 H 
ATOM     66 H66  LIG A   1      20.793  14.022   8.337  1.00 20.00    +0.049 H 
ATOM     67 H67  LIG A   1      19.267  12.101   7.803  1.00 20.00    +0.030 H 
ATOM     68 H68  LIG A   1      17.991  12.851   8.746  1.00 20.00    +0.030 H 
ATOM     69 H69  LIG A   1      20.751  11.991   9.767  1.00 20.00    +0.043 H 
ATOM     70 H70  LIG A   1      19.295  11.054   9.969  1.00 20.00    +0.043 H 
ATOM     71 H71  LIG A   1      19.663  13.791  10.991  1.00 20.00    +0.122 HD
ATOM     72 H72  LIG A   1      17.958  13.489  12.444  1.00 20.00    +0.043 H 
ATOM     73 H73  LIG A   1      17.357  12.935  10.898  1.00 20.00    +0.043 H 
ATOM     74 H74  LIG A   1      17.979  10.527  11.651  1.00 20.00    +0.028 H 
ATOM     75 H75  LIG A   1      16.646  11.324  12.450  1.00 20.00    +0.028 H 
ATOM     76 H76  LIG A   1      17.962  10.139  14.063  1.00 20.00    +0.028 H 
ATOM     77 H77  LIG A   1      17.999  11.862  14.407  1.00 20.00    +0.028 H 
ATOM     78 H78  LIG A   1      20.264  10.394  12.941  1.00 20.00    +0.043 H 
ATOM     79 H79  LIG A   1      20.297  12.059  13.558  1.00 20.00    +0.043 H 
ATOM     80 H80  LIG A   1      21.368  10.550  15.017  1.00 20.00    +0.118 HD
ATOM     81 H81  LIG A   1      20.027   9.635  15.182  1.00 20.00    +0.118 HD
ATOM     82 H82  LIG A   1      21.310  16.143   7.761  1.00 20.00    +0.064 H 
ATOM     83 H83  LIG A   1      22.036  18.452   7.705  1.00 20.00    +0.063 H 
ATOM     84 H84  LIG A   1      23.863  23.593  10.702  1.00 20.00    +0.050 H 
ATOM     85 H85  LIG A   1      24.860  22.178  10.470  1.00 20.00    +0.050 H 
ATOM     86 H86  LIG A   1      24.770  22.387   8.117  1.00 20.00    +0.029 H 
ATOM     87 H87  LIG A   1      25.004  23.992   8.738  1.00 20.00    +0.029 H 
ATOM     88 H88  LIG A   1      23.605  23.948   6.793  1.00 20.00    +0.028 H 
ATOM     89 H89  LIG A   1      22.462  22.867   7.480  1.00 20.00    +0.028 H 
ATOM     90 H90  LIG A   1      23.026  25.752   8.362  1.00 20.00    +0.047 H 
ATOM     91 H91  LIG A   1      21.373  26.013   5.328  1.00 20.00    +0.296 HD
ATOM     92 H92  LIG A   1      23.322  23.334  12.509  1.00 20.00    +0.057 H 
ATOM     93 H93  LIG A   1      23.606  20.754  13.845  1.00 20.00    +0.119 HD
ATOM     94 H94  LIG A   1      24.657  21.304  12.736  1.00 20.00    +0.119 HD
ATOM     95 H95  LIG A   1      19.339  16.466  11.152  1.00 20.00    +0.293 HD
ATOM     96 H96  LIG A   1      18.357  18.524  11.165  1.00 20.00    +0.066 H 
ATOM     97 H97  LIG A   1      18.746  20.946  10.849  1.00 20.00    +0.063 H 
ATOM     98 H98  LIG A   1      21.033  21.798  10.356  1.00 20.00    +0.066 H 
ATOM     99 H99  LIG A   1      23.733  19.510  10.107  1.00 20.00    +0.293 HD
ATOM    100 H100 LIG A   1      22.379  16.740  10.635  1.00 20.00    +0.293 HD
ENDROOT
TORSDOF 0
                                                                                                       
ENDMDL
MODEL 7
REMARK VINA RESULT:   -10.185      2.808      9.529
REMARK INTER + INTRA:         -10.185
REMARK INTER:                 -10.185
REMARK INTRA:                   0.000
REMARK UNBOUND:                 0.000
ROOT
ATOM      1 C1   LIG A   1      17.200  11.195  11.609  1.00 20.00    -0.060 C 
ATOM      2 C2   LIG A   1      17.959  12.230  10.759  1.00 20.00    -0.016 C 
ATOM      3 C3   LIG A   1      19.351  11.626  10.361  1.00 20.00    -0.023 C 
ATOM      4 C4   LIG A   1      19.484  11.252   8.907  1.00 20.00    -0.044 A 
ATOM      5 C5   LIG A   1      18.787  10.165   8.375  1.00 20.00    -0.058 A 
ATOM      6 C6   LIG A   1      18.577  10.087   7.000  1.00 20.00    -0.054 A 
ATOM      7 C7   LIG A   1      19.030  11.113   6.150  1.00 20.00    +0.009 A 
ATOM      8 C8   LIG A   1      19.862  12.115   6.682  1.00 20.00    +0.130 A 
ATOM      9 C9   LIG A   1      20.145  12.135   8.047  1.00 20.00    -0.016 A 
ATOM     10 O10  LIG A   1      20.283  13.126   5.846  1.00 20.00    -0.464 OA
ATOM     11 C11  LIG A   1      20.402  14.404   6.352  1.00 20.00    +0.104 C 
ATOM     12 C12  LIG A   1      19.421  15.267   6.698  1.00 20.00    +0.082 C 
ATOM     13 C13  LIG A   1      19.803  16.647   7.071  1.00 20.00    -0.010 A 
ATOM     14 C14  LIG A   1      20.667  16.883   8.147  1.00 20.00    -0.052 A 
ATOM     15 C15  LIG A   1      21.042  18.187   8.490  1.00 20.00    -0.038 A 
ATOM     16 C16  LIG A   1      20.580  19.295   7.767  1.00 20.00    +0.034 A 
ATOM     17 N17  LIG A   1      20.943  20.571   8.213  1.00 20.00    -0.385 NA
ATOM     18 C18  LIG A   1      20.657  21.741   7.387  1.00 20.00    +0.016 C 
ATOM     19 C19  LIG A   1      21.169  23.018   8.061  1.00 20.00    -0.023 C 
ATOM     20 C20  LIG A   1      20.356  23.439   9.294  1.00 20.00    -0.003 C 
ATOM     21 N21  LIG A   1      20.384  22.491  10.412  1.00 20.00    -0.317 NA
ATOM     22 C22  LIG A   1      21.638  22.483  11.165  1.00 20.00    -0.005 C 
ATOM     23 C23  LIG A   1      21.827  23.683  12.101  1.00 20.00    -0.039 C 
ATOM     24 C24  LIG A   1      20.974  23.664  13.377  1.00 20.00    -0.040 C 
ATOM     25 C25  LIG A   1      19.466  23.695  13.142  1.00 20.00    -0.008 C 
ATOM     26 N26  LIG A   1      18.770  23.901  14.414  1.00 20.00    -0.330 NA
ATOM     27 C27  LIG A   1      19.679  19.056   6.727  1.00 20.00    -0.038 A 
ATOM     28 C28  LIG A   1      19.309  17.751   6.370  1.00 20.00    -0.052 A 
ATOM     29 C29  LIG A   1      17.970  14.893   6.554  1.00 20.00    +0.264 C 
ATOM     30 O30  LIG A   1      17.245  15.518   5.779  1.00 20.00    -0.268 OA
ATOM     31 N31  LIG A   1      17.520  13.812   7.304  1.00 20.00    -0.277 NA
ATOM     32 C32  LIG A   1      16.467  12.985   6.699  1.00 20.00    +0.029 C 
ATOM     33 C33  LIG A   1      16.441  12.777   5.167  1.00 20.00    -0.034 C 
ATOM     34 C34  LIG A   1      17.731  12.463   4.384  1.00 20.00    -0.034 C 
ATOM     35 C35  LIG A   1      18.501  11.160   4.724  1.00 20.00    +0.085 C 
ATOM     36 C36  LIG A   1      19.604  10.890   3.702  1.00 20.00    +0.311 C 
ATOM     37 O37  LIG A   1      20.780  10.641   3.913  1.00 20.00    -0.252 OA
ATOM     38 O38  LIG A   1      19.144  10.870   2.432  1.00 20.00    -0.481 OA
ATOM     39 C39  LIG A   1      17.749  13.823   8.691  1.00 20.00    +0.246 C 
ATOM     40 O40  LIG A   1      18.456  14.669   9.252  1.00 20.00    -0.273 OA
ATOM     41 C41  LIG A   1      17.051  12.752   9.589  1.00 20.00    +0.088 C 
ATOM     42 N42  LIG A   1      15.828  13.387  10.147  1.00 20.00    -0.320 NA
ATOM     43 O43  LIG A   1      19.725  18.742   9.379  1.00 20.00    -0.504 OA
ATOM     44 C44  LIG A   1      19.652  17.450   8.939  1.00 20.00    +0.161 A 
ATOM     45 C45  LIG A   1      20.726  16.571   9.051  1.00 20.00    -0.016 A 
ATOM     46 C46  LIG A   1      20.590  15.260   8.578  1.00 20.00    -0.055 A 
ATOM     47 C47  LIG A   1      19.390  14.836   7.997  1.00 20.00    -0.016 A 
ATOM     48 C48  LIG A   1      18.332  15.727   7.892  1.00 20.00    +0.161 A 
ATOM     49 O49  LIG A   1      17.160  15.317   7.324  1.00 20.00    -0.504 OA
ATOM     50 C50  LIG A   1      18.459  17.028   8.361  1.00 20.00    +0.200 A 
ATOM     51 O51  LIG A   1      17.401  17.887   8.245  1.00 20.00    -0.502 OA
ATOM     52 H52  LIG A   1      16.286  11.617  12.039  1.00 20.00    +0.023 H 
ATOM     53 H53  LIG A   1      16.921  10.320  11.014  1.00 20.00    +0.023 H 
ATOM     54 H54  LIG A   1      17.816  10.853  12.448  1.00 20.00    +0.023 H 
ATOM     55 H55  LIG A   1      18.178  13.075  11.429  1.00 20.00    +0.032 H 
ATOM     56 H56  LIG A   1      20.124  12.367  10.607  1.00 20.00    +0.032 H 
ATOM     57 H57  LIG A   1      19.598  10.752  10.975  1.00 20.00    +0.032 H 
ATOM     58 H58  LIG A   1      18.318   9.434   9.030  1.00 20.00    +0.063 H 
ATOM     59 H59  LIG A   1      17.969   9.272   6.612  1.00 20.00    +0.063 H 
ATOM     60 H60  LIG A   1      20.740  12.944   8.470  1.00 20.00    +0.067 H 
ATOM     61 H61  LIG A   1      21.452  14.678   6.350  1.00 20.00    +0.105 H 
ATOM     62 H62  LIG A   1      21.032  16.055   8.750  1.00 20.00    +0.063 H 
ATOM     63 H63  LIG A   1      21.693  18.332   9.350  1.00 20.00    +0.064 H 
ATOM     64 H64  LIG A   1      21.887  20.570   8.594  1.00 20.00    +0.160 HD
ATOM     65 H65  LIG A   1      21.155  21.635   6.415  1.00 20.00    +0.049 H 
ATOM     66 H66  LIG A   1      19.580  21.840   7.213  1.00 20.00    +0.049 H 
ATOM     67 H67  LIG A   1      21.104  23.833   7.328  1.00 20.00    +0.030 H 
ATOM     68 H68  LIG A   1      22.230  22.916   8.314  1.00 20.00    +0.030 H 
ATOM     69 H69  LIG A   1      19.308  23.553   8.992  1.00 20.00    +0.043 H 
ATOM     70 H70  LIG A   1      20.675  24.435   9.618  1.00 20.00    +0.043 H 
ATOM     71 H71  LIG A   1      20.238  21.551  10.016  1.00 20.00    +0.122 HD
ATOM     72 H72  LIG A   1      21.663  21.567  11.770  1.00 20.00    +0.043 H 
ATOM     73 H73  LIG A   1      22.495  22.414  10.487  1.00 20.00    +0.043 H 
ATOM     74 H74  LIG A   1      21.670  24.627  11.570  1.00 20.00    +0.028 H 
ATOM     75 H75  LIG A   1      22.877  23.692  12.418  1.00 20.00    +0.028 H 
ATOM     76 H76  LIG A   1      21.267  24.536  13.978  1.00 20.00    +0.028 H 
ATOM     77 H77  LIG A   1      21.235  22.779  13.973  1.00 20.00    +0.028 H 
ATOM     78 H78  LIG A   1      19.198  24.500  12.449  1.00 20.00    +0.043 H 
ATOM     79 H79  LIG A   1      19.121  22.746  12.720  1.00 20.00    +0.043 H 
ATOM     80 H80  LIG A   1      17.767  23.939  14.236  1.00 20.00    +0.118 HD
ATOM     81 H81  LIG A   1      19.027  24.807  14.801  1.00 20.00    +0.118 HD
ATOM     82 H82  LIG A   1      19.243  19.872   6.160  1.00 20.00    +0.064 H 
ATOM     83 H83  LIG A   1      18.620  17.617   5.538  1.00 20.00    +0.063 H 
ATOM     84 H84  LIG A   1      16.500  11.985   7.131  1.00 20.00    +0.050 H 
ATOM     85 H85  LIG A   1      15.506  13.416   7.008  1.00 20.00    +0.050 H 
ATOM     86 H86  LIG A   1      15.997  13.671   4.710  1.00 20.00    +0.029 H 
ATOM     87 H87  LIG A   1      15.720  11.975   4.962  1.00 20.00    +0.029 H 
ATOM     88 H88  LIG A   1      17.424  12.401   3.331  1.00 20.00    +0.028 H 
ATOM     89 H89  LIG A   1      18.396  13.330   4.399  1.00 20.00    +0.028 H 
ATOM     90 H90  LIG A   1      17.795  10.327   4.599  1.00 20.00    +0.047 H 
ATOM     91 H91  LIG A   1      19.942  10.668   1.902  1.00 20.00    +0.296 HD
ATOM     92 H92  LIG A   1      16.720  11.887   9.020  1.00 20.00    +0.057 H 
ATOM     93 H93  LIG A   1      16.123  14.155  10.758  1.00 20.00    +0.119 HD
ATOM     94 H94  LIG A   1      15.294  13.830   9.400  1.00 20.00    +0.119 HD
ATOM     95 H95  LIG A   1      20.626  18.897   9.714  1.00 20.00    +0.293 HD
ATOM     96 H96  LIG A   1      21.665  16.878   9.499  1.00 20.00    +0.066 H 
ATOM     97 H97  LIG A   1      21.422  14.564   8.661  1.00 20.00    +0.063 H 
ATOM     98 H98  LIG A   1      19.282  13.820   7.628  1.00 20.00    +0.066 H 
ATOM     99 H99  LIG A   1      16.582  16.106   7.364  1.00 20.00    +0.293 HD
ATOM    100 H100 LIG A   1      17.728  18.722   8.639  1.00 20.00    +0.293 HD
ENDROOT
TORSDOF 0
                                                                                                       
ENDMDL
MODEL 8
REMARK VINA RESULT:    -9.923      5.230     10.944
REMARK INTER + INTRA:          -9.923
REMARK INTER:                  -9.923
REMARK INTRA:                   0.000
REMARK UNBOUND:                 0.000
ROOT
ATOM      1 C1   LIG A   1      22.315  21.765   5.607  1.00 20.00    -0.060 C 
ATOM      2 C2   LIG A   1      21.836  21.992   7.053  1.00 20.00    -0.016 C 
ATOM      3 C3   LIG A   1      20.342  21.530   7.163  1.00 20.00    -0.023 C 
ATOM      4 C4   LIG A   1      20.131  20.261   7.949  1.00 20.00    -0.044 A 
ATOM      5 C5   LIG A   1      20.544  19.024   7.449  1.00 20.00    -0.058 A 
ATOM      6 C6   LIG A   1      20.737  17.956   8.323  1.00 20.00    -0.054 A 
ATOM      7 C7   LIG A   1      20.554  18.126   9.708  1.00 20.00    +0.009 A 
ATOM      8 C8   LIG A   1      19.988  19.328  10.173  1.00 20.00    +0.130 A 
ATOM      9 C9   LIG A   1      19.710  20.361   9.279  1.00 20.00    -0.016 A 
ATOM     10 O10  LIG A   1      19.831  19.492  11.532  1.00 20.00    -0.464 OA
ATOM     11 C11  LIG A   1      20.026  20.743  12.080  1.00 20.00    +0.104 C 
ATOM     12 C12  LIG A   1      21.185  21.413  12.258  1.00 20.00    +0.082 C 
ATOM     13 C13  LIG A   1      21.149  22.684  13.016  1.00 20.00    -0.010 A 
ATOM     14 C14  LIG A   1      20.362  23.755  12.577  1.00 20.00    -0.052 A 
ATOM     15 C15  LIG A   1      20.315  24.952  13.303  1.00 20.00    -0.038 A 
ATOM     16 C16  LIG A   1      21.038  25.115  14.492  1.00 20.00    +0.034 A 
ATOM     17 N17  LIG A   1      20.995  26.363  15.124  1.00 20.00    -0.385 NA
ATOM     18 C18  LIG A   1      21.562  26.524  16.460  1.00 20.00    +0.016 C 
ATOM     19 C19  LIG A   1      21.374  27.960  16.958  1.00 20.00    -0.023 C 
ATOM     20 C20  LIG A   1      22.257  28.990  16.239  1.00 20.00    -0.003 C 
ATOM     21 N21  LIG A   1      21.992  29.144  14.805  1.00 20.00    -0.317 NA
ATOM     22 C22  LIG A   1      20.769  29.885  14.494  1.00 20.00    -0.005 C 
ATOM     23 C23  LIG A   1      20.874  31.401  14.698  1.00 20.00    -0.039 C 
ATOM     24 C24  LIG A   1      21.688  32.155  13.638  1.00 20.00    -0.040 C 
ATOM     25 C25  LIG A   1      23.160  31.756  13.556  1.00 20.00    -0.008 C 
ATOM     26 N26  LIG A   1      23.877  32.687  12.682  1.00 20.00    -0.330 NA
ATOM     27 C27  LIG A   1      21.859  24.060  14.897  1.00 20.00    -0.038 A 
ATOM     28 C28  LIG A   1      21.902  22.855  14.182  1.00 20.00    -0.052 A 
ATOM     29 C29  LIG A   1      22.502  20.813  11.842  1.00 20.00    +0.264 C 
ATOM     30 O30  LIG A   1      23.362  20.566  12.688  1.00 20.00    -0.268 OA
ATOM     31 N31  LIG A   1      22.670  20.535  10.491  1.00 20.00    -0.277 NA
ATOM     32 C32  LIG A   1      23.492  19.365  10.157  1.00 20.00    +0.029 C 
ATOM     33 C33  LIG A   1      23.476  18.127  11.085  1.00 20.00    -0.034 C 
ATOM     34 C34  LIG A   1      22.153  17.572  11.647  1.00 20.00    -0.034 C 
ATOM     35 C35  LIG A   1      21.087  17.054  10.647  1.00 20.00    +0.085 C 
ATOM     36 C36  LIG A   1      19.957  16.327  11.374  1.00 20.00    +0.311 C 
ATOM     37 O37  LIG A   1      18.755  16.503  11.264  1.00 20.00    -0.252 OA
ATOM     38 O38  LIG A   1      20.406  15.331  12.169  1.00 20.00    -0.481 OA
ATOM     39 C39  LIG A   1      22.441  21.569   9.565  1.00 20.00    +0.246 C 
ATOM     40 O40  LIG A   1      21.959  22.664   9.881  1.00 20.00    -0.273 OA
ATOM     41 C41  LIG A   1      22.852  21.362   8.072  1.00 20.00    +0.088 C 
ATOM     42 N42  LIG A   1      24.189  21.988   7.901  1.00 20.00    -0.320 NA
ATOM     43 O43  LIG A   1      21.723  25.743  12.827  1.00 20.00    -0.504 OA
ATOM     44 C44  LIG A   1      21.480  24.536  12.232  1.00 20.00    +0.161 A 
ATOM     45 C45  LIG A   1      20.224  24.197  11.738  1.00 20.00    -0.016 A 
ATOM     46 C46  LIG A   1      20.038  22.943  11.141  1.00 20.00    -0.055 A 
ATOM     47 C47  LIG A   1      21.102  22.040  11.043  1.00 20.00    -0.016 A 
ATOM     48 C48  LIG A   1      22.347  22.396  11.543  1.00 20.00    +0.161 A 
ATOM     49 O49  LIG A   1      23.386  21.516  11.451  1.00 20.00    -0.504 OA
ATOM     50 C50  LIG A   1      22.537  23.638  12.134  1.00 20.00    +0.200 A 
ATOM     51 O51  LIG A   1      23.774  23.964  12.620  1.00 20.00    -0.502 OA
ATOM     52 H52  LIG A   1      23.302  22.206   5.434  1.00 20.00    +0.023 H 
ATOM     53 H53  LIG A   1      22.376  20.698   5.371  1.00 20.00    +0.023 H 
ATOM     54 H54  LIG A   1      21.629  22.232   4.892  1.00 20.00    +0.023 H 
ATOM     55 H55  LIG A   1      21.827  23.082   7.205  1.00 20.00    +0.032 H 
ATOM     56 H56  LIG A   1      19.772  22.339   7.639  1.00 20.00    +0.032 H 
ATOM     57 H57  LIG A   1      19.885  21.412   6.173  1.00 20.00    +0.032 H 
ATOM     58 H58  LIG A   1      20.816  18.914   6.401  1.00 20.00    +0.063 H 
ATOM     59 H59  LIG A   1      21.130  17.023   7.925  1.00 20.00    +0.063 H 
ATOM     60 H60  LIG A   1      19.328  21.313   9.647  1.00 20.00    +0.067 H 
ATOM     61 H61  LIG A   1      19.074  21.104  12.458  1.00 20.00    +0.105 H 
ATOM     62 H62  LIG A   1      19.802  23.682  11.647  1.00 20.00    +0.063 H 
ATOM     63 H63  LIG A   1      19.713  25.771  12.915  1.00 20.00    +0.064 H 
ATOM     64 H64  LIG A   1      20.077  26.791  15.024  1.00 20.00    +0.160 HD
ATOM     65 H65  LIG A   1      21.059  25.842  17.157  1.00 20.00    +0.049 H 
ATOM     66 H66  LIG A   1      22.632  26.288  16.458  1.00 20.00    +0.049 H 
ATOM     67 H67  LIG A   1      21.640  27.983  18.023  1.00 20.00    +0.030 H 
ATOM     68 H68  LIG A   1      20.318  28.248  16.899  1.00 20.00    +0.030 H 
ATOM     69 H69  LIG A   1      23.303  28.677  16.343  1.00 20.00    +0.043 H 
ATOM     70 H70  LIG A   1      22.189  29.953  16.756  1.00 20.00    +0.043 H 
ATOM     71 H71  LIG A   1      21.906  28.197  14.409  1.00 20.00    +0.122 HD
ATOM     72 H72  LIG A   1      20.518  29.696  13.443  1.00 20.00    +0.043 H 
ATOM     73 H73  LIG A   1      19.925  29.498  15.075  1.00 20.00    +0.043 H 
ATOM     74 H74  LIG A   1      21.259  31.641  15.695  1.00 20.00    +0.028 H 
ATOM     75 H75  LIG A   1      19.855  31.809  14.670  1.00 20.00    +0.028 H 
ATOM     76 H76  LIG A   1      21.613  33.226  13.870  1.00 20.00    +0.028 H 
ATOM     77 H77  LIG A   1      21.215  32.020  12.656  1.00 20.00    +0.028 H 
ATOM     78 H78  LIG A   1      23.620  31.767  14.550  1.00 20.00    +0.043 H 
ATOM     79 H79  LIG A   1      23.265  30.751  13.137  1.00 20.00    +0.043 H 
ATOM     80 H80  LIG A   1      24.861  32.418  12.655  1.00 20.00    +0.118 HD
ATOM     81 H81  LIG A   1      23.847  33.623  13.081  1.00 20.00    +0.118 HD
ATOM     82 H82  LIG A   1      22.485  24.140  15.780  1.00 20.00    +0.064 H 
ATOM     83 H83  LIG A   1      22.543  22.055  14.550  1.00 20.00    +0.063 H 
ATOM     84 H84  LIG A   1      23.213  18.997   9.170  1.00 20.00    +0.050 H 
ATOM     85 H85  LIG A   1      24.527  19.718  10.066  1.00 20.00    +0.050 H 
ATOM     86 H86  LIG A   1      24.127  18.337  11.943  1.00 20.00    +0.029 H 
ATOM     87 H87  LIG A   1      23.981  17.314  10.547  1.00 20.00    +0.029 H 
ATOM     88 H88  LIG A   1      22.443  16.728  12.289  1.00 20.00    +0.028 H 
ATOM     89 H89  LIG A   1      21.721  18.284  12.353  1.00 20.00    +0.028 H 
ATOM     90 H90  LIG A   1      21.569  16.280  10.034  1.00 20.00    +0.047 H 
ATOM     91 H91  LIG A   1      19.586  14.949  12.544  1.00 20.00    +0.296 HD
ATOM     92 H92  LIG A   1      22.965  20.312   7.816  1.00 20.00    +0.057 H 
ATOM     93 H93  LIG A   1      24.087  22.996   8.055  1.00 20.00    +0.119 HD
ATOM     94 H94  LIG A   1      24.820  21.669   8.635  1.00 20.00    +0.119 HD
ATOM     95 H95  LIG A   1      20.884  26.238  12.860  1.00 20.00    +0.293 HD
ATOM     96 H96  LIG A   1      19.385  24.882  11.803  1.00 20.00    +0.066 H 
ATOM     97 H97  LIG A   1      19.061  22.667  10.751  1.00 20.00    +0.063 H 
ATOM     98 H98  LIG A   1      20.961  21.067  10.582  1.00 20.00    +0.066 H 
ATOM     99 H99  LIG A   1      24.139  21.985  11.864  1.00 20.00    +0.293 HD
ATOM    100 H100 LIG A   1      23.658  24.869  12.977  1.00 20.00    +0.293 HD
ENDROOT
TORSDOF 0
                                                                                                       
ENDMDL
MODEL 9
REMARK VINA RESULT:    -9.907      3.447      9.405
REMARK INTER + INTRA:          -9.907
REMARK INTER:                  -9.907
REMARK INTRA:                   0.000
REMARK UNBOUND:                 0.000
ROOT
ATOM      1 C1   LIG A   1      20.509  17.067   4.141  1.00 20.00    -0.060 C 
ATOM      2 C2   LIG A   1      20.264  17.538   5.587  1.00 20.00    -0.016 C 
ATOM      3 C3   LIG A   1      18.723  17.485   5.875  1.00 20.00    -0.023 C 
ATOM      4 C4   LIG A   1      18.295  16.388   6.817  1.00 20.00    -0.044 A 
ATOM      5 C5   LIG A   1      18.334  15.048   6.428  1.00 20.00    -0.058 A 
ATOM      6 C6   LIG A   1      18.354  14.049   7.399  1.00 20.00    -0.054 A 
ATOM      7 C7   LIG A   1      18.372  14.383   8.766  1.00 20.00    +0.009 A 
ATOM      8 C8   LIG A   1      18.173  15.726   9.137  1.00 20.00    +0.130 A 
ATOM      9 C9   LIG A   1      18.061  16.712   8.157  1.00 20.00    -0.016 A 
ATOM     10 O10  LIG A   1      18.213  16.046  10.477  1.00 20.00    -0.464 OA
ATOM     11 C11  LIG A   1      18.768  17.250  10.859  1.00 20.00    +0.104 C 
ATOM     12 C12  LIG A   1      20.069  17.615  10.861  1.00 20.00    +0.082 C 
ATOM     13 C13  LIG A   1      20.430  18.915  11.468  1.00 20.00    -0.010 A 
ATOM     14 C14  LIG A   1      19.887  20.108  10.977  1.00 20.00    -0.052 A 
ATOM     15 C15  LIG A   1      20.215  21.337  11.562  1.00 20.00    -0.038 A 
ATOM     16 C16  LIG A   1      21.083  21.416  12.660  1.00 20.00    +0.034 A 
ATOM     17 N17  LIG A   1      21.418  22.685  13.146  1.00 20.00    -0.385 NA
ATOM     18 C18  LIG A   1      22.151  22.815  14.402  1.00 20.00    +0.016 C 
ATOM     19 C19  LIG A   1      22.377  24.290  14.747  1.00 20.00    -0.023 C 
ATOM     20 C20  LIG A   1      23.401  24.991  13.842  1.00 20.00    -0.003 C 
ATOM     21 N21  LIG A   1      23.026  25.078  12.427  1.00 20.00    -0.317 NA
ATOM     22 C22  LIG A   1      21.996  26.077  12.138  1.00 20.00    -0.005 C 
ATOM     23 C23  LIG A   1      22.491  27.528  12.157  1.00 20.00    -0.039 C 
ATOM     24 C24  LIG A   1      23.343  27.949  10.952  1.00 20.00    -0.040 C 
ATOM     25 C25  LIG A   1      24.654  27.182  10.793  1.00 20.00    -0.008 C 
ATOM     26 N26  LIG A   1      25.476  27.816   9.761  1.00 20.00    -0.330 NA
ATOM     27 C27  LIG A   1      21.659  20.227  13.112  1.00 20.00    -0.038 A 
ATOM     28 C28  LIG A   1      21.326  18.991  12.539  1.00 20.00    -0.052 A 
ATOM     29 C29  LIG A   1      21.144  16.663  10.407  1.00 20.00    +0.264 C 
ATOM     30 O30  LIG A   1      22.005  16.281  11.200  1.00 20.00    -0.268 OA
ATOM     31 N31  LIG A   1      21.088  16.231   9.087  1.00 20.00    -0.277 NA
ATOM     32 C32  LIG A   1      21.556  14.865   8.821  1.00 20.00    +0.029 C 
ATOM     33 C33  LIG A   1      21.339  13.761   9.883  1.00 20.00    -0.034 C 
ATOM     34 C34  LIG A   1      19.991  13.614  10.615  1.00 20.00    -0.034 C 
ATOM     35 C35  LIG A   1      18.726  13.299   9.774  1.00 20.00    +0.085 C 
ATOM     36 C36  LIG A   1      17.539  12.953  10.672  1.00 20.00    +0.311 C 
ATOM     37 O37  LIG A   1      16.413  13.421  10.644  1.00 20.00    -0.252 OA
ATOM     38 O38  LIG A   1      17.815  11.952  11.536  1.00 20.00    -0.481 OA
ATOM     39 C39  LIG A   1      21.020  17.202   8.071  1.00 20.00    +0.246 C 
ATOM     40 O40  LIG A   1      20.859  18.407   8.299  1.00 20.00    -0.273 OA
ATOM     41 C41  LIG A   1      21.199  16.764   6.583  1.00 20.00    +0.088 C 
ATOM     42 N42  LIG A   1      22.622  17.009   6.229  1.00 20.00    -0.320 NA
ATOM     43 O43  LIG A   1      21.712  21.696  10.882  1.00 20.00    -0.504 OA
ATOM     44 C44  LIG A   1      21.117  20.543  10.452  1.00 20.00    +0.161 A 
ATOM     45 C45  LIG A   1      19.769  20.493  10.108  1.00 20.00    -0.016 A 
ATOM     46 C46  LIG A   1      19.217  19.281   9.676  1.00 20.00    -0.055 A 
ATOM     47 C47  LIG A   1      20.009  18.131   9.593  1.00 20.00    -0.016 A 
ATOM     48 C48  LIG A   1      21.350  18.200   9.942  1.00 20.00    +0.161 A 
ATOM     49 O49  LIG A   1      22.124  17.078   9.864  1.00 20.00    -0.504 OA
ATOM     50 C50  LIG A   1      21.904  19.399  10.369  1.00 20.00    +0.200 A 
ATOM     51 O51  LIG A   1      23.229  19.440  10.708  1.00 20.00    -0.502 OA
ATOM     52 H52  LIG A   1      21.548  17.224   3.836  1.00 20.00    +0.023 H 
ATOM     53 H53  LIG A   1      20.279  16.004   4.026  1.00 20.00    +0.023 H 
ATOM     54 H54  LIG A   1      19.884  17.628   3.438  1.00 20.00    +0.023 H 
ATOM     55 H55  LIG A   1      20.539  18.603   5.613  1.00 20.00    +0.032 H 
ATOM     56 H56  LIG A   1      18.426  18.453   6.301  1.00 20.00    +0.032 H 
ATOM     57 H57  LIG A   1      18.145  17.400   4.947  1.00 20.00    +0.032 H 
ATOM     58 H58  LIG A   1      18.453  14.778   5.381  1.00 20.00    +0.063 H 
ATOM     59 H59  LIG A   1      18.459  13.013   7.079  1.00 20.00    +0.063 H 
ATOM     60 H60  LIG A   1      17.967  17.758   8.444  1.00 20.00    +0.067 H 
ATOM     61 H61  LIG A   1      17.982  17.874  11.271  1.00 20.00    +0.105 H 
ATOM     62 H62  LIG A   1      19.227  20.097  10.112  1.00 20.00    +0.063 H 
ATOM     63 H63  LIG A   1      19.794  22.245  11.135  1.00 20.00    +0.064 H 
ATOM     64 H64  LIG A   1      20.627  23.323  13.075  1.00 20.00    +0.160 HD
ATOM     65 H65  LIG A   1      21.576  22.350  15.213  1.00 20.00    +0.049 H 
ATOM     66 H66  LIG A   1      23.123  22.314  14.337  1.00 20.00    +0.049 H 
ATOM     67 H67  LIG A   1      22.757  24.339  15.775  1.00 20.00    +0.030 H 
ATOM     68 H68  LIG A   1      21.425  24.832  14.744  1.00 20.00    +0.030 H 
ATOM     69 H69  LIG A   1      24.343  24.432  13.892  1.00 20.00    +0.043 H 
ATOM     70 H70  LIG A   1      23.629  25.981  14.249  1.00 20.00    +0.043 H 
ATOM     71 H71  LIG A   1      22.667  24.153  12.152  1.00 20.00    +0.122 HD
ATOM     72 H72  LIG A   1      21.591  25.865  11.140  1.00 20.00    +0.043 H 
ATOM     73 H73  LIG A   1      21.152  25.972  12.828  1.00 20.00    +0.043 H 
ATOM     74 H74  LIG A   1      23.031  27.749  13.083  1.00 20.00    +0.028 H 
ATOM     75 H75  LIG A   1      21.607  28.178  12.168  1.00 20.00    +0.028 H 
ATOM     76 H76  LIG A   1      23.560  29.021  11.066  1.00 20.00    +0.028 H 
ATOM     77 H77  LIG A   1      22.746  27.852  10.036  1.00 20.00    +0.028 H 
ATOM     78 H78  LIG A   1      25.209  27.164  11.737  1.00 20.00    +0.043 H 
ATOM     79 H79  LIG A   1      24.462  26.150  10.485  1.00 20.00    +0.043 H 
ATOM     80 H80  LIG A   1      26.355  27.303   9.682  1.00 20.00    +0.118 HD
ATOM     81 H81  LIG A   1      25.721  28.761  10.051  1.00 20.00    +0.118 HD
ATOM     82 H82  LIG A   1      22.379  20.223  13.925  1.00 20.00    +0.064 H 
ATOM     83 H83  LIG A   1      21.787  18.091  12.941  1.00 20.00    +0.063 H 
ATOM     84 H84  LIG A   1      21.088  14.493   7.910  1.00 20.00    +0.050 H 
ATOM     85 H85  LIG A   1      22.629  14.932   8.604  1.00 20.00    +0.050 H 
ATOM     86 H86  LIG A   1      22.112  13.873  10.654  1.00 20.00    +0.029 H 
ATOM     87 H87  LIG A   1      21.566  12.800   9.401  1.00 20.00    +0.029 H 
ATOM     88 H88  LIG A   1      20.133  12.786  11.322  1.00 20.00    +0.028 H 
ATOM     89 H89  LIG A   1      19.827  14.475  11.268  1.00 20.00    +0.028 H 
ATOM     90 H90  LIG A   1      18.932  12.376   9.216  1.00 20.00    +0.047 H 
ATOM     91 H91  LIG A   1      16.973  11.827  12.019  1.00 20.00    +0.296 HD
ATOM     92 H92  LIG A   1      21.022  15.701   6.440  1.00 20.00    +0.057 H 
ATOM     93 H93  LIG A   1      22.788  18.019   6.274  1.00 20.00    +0.119 HD
ATOM     94 H94  LIG A   1      23.233  16.606   6.939  1.00 20.00    +0.119 HD
ATOM     95 H95  LIG A   1      21.030  22.389  10.928  1.00 20.00    +0.293 HD
ATOM     96 H96  LIG A   1      19.137  21.373  10.164  1.00 20.00    +0.066 H 
ATOM     97 H97  LIG A   1      18.165  19.229   9.404  1.00 20.00    +0.063 H 
ATOM     98 H98  LIG A   1      19.583  17.188   9.260  1.00 20.00    +0.066 H 
ATOM     99 H99  LIG A   1      23.010  17.374  10.156  1.00 20.00    +0.293 HD
ATOM    100 H100 LIG A   1      23.378  20.373  10.968  1.00 20.00    +0.293 HD
ENDROOT
TORSDOF 0
                                                                                                       
ENDMDL
