MODEL 1
REMARK VINA RESULT:   -11.870      0.000      0.000
REMARK INTER + INTRA:         -11.870
REMARK INTER:                 -11.870
REMARK INTRA:                   0.000
REMARK UNBOUND:                 0.000
ROOT
ATOM      1 C1   LIG A   1      20.028  22.858  11.795  1.00 20.00    -0.048 C 
ATOM      2 C2   LIG A   1      20.451  21.423  12.057  1.00 20.00    +0.015 C 
ATOM      3 N3   LIG A   1      19.611  20.512  11.296  1.00 20.00    -0.357 NA
ATOM      4 C4   LIG A   1      19.686  19.152  11.387  1.00 20.00    +0.195 C 
ATOM      5 N5   LIG A   1      20.433  18.499  12.212  1.00 20.00    -0.269 NA
ATOM      6 N6   LIG A   1      18.853  18.522  10.508  1.00 20.00    -0.298 NA
ATOM      7 C7   LIG A   1      18.687  17.214  10.193  1.00 20.00    +0.192 C 
ATOM      8 N8   LIG A   1      19.377  16.220  10.630  1.00 20.00    -0.269 NA
ATOM      9 N9   LIG A   1      17.687  16.974   9.312  1.00 20.00    -0.370 NA
ATOM     10 N10  LIG A   1      21.859  31.926  16.960  1.00 20.00    -0.330 NA
ATOM     11 C11  LIG A   1      20.814  30.973  16.602  1.00 20.00    -0.008 C 
ATOM     12 C12  LIG A   1      21.324  29.537  16.694  1.00 20.00    -0.040 C 
ATOM     13 C13  LIG A   1      20.226  28.533  16.324  1.00 20.00    -0.039 C 
ATOM     14 C14  LIG A   1      20.679  27.077  16.462  1.00 20.00    -0.005 C 
ATOM     15 N15  LIG A   1      21.761  26.774  15.526  1.00 20.00    -0.317 NA
ATOM     16 C16  LIG A   1      22.238  25.398  15.689  1.00 20.00    -0.003 C 
ATOM     17 C17  LIG A   1      23.367  25.123  14.695  1.00 20.00    -0.023 C 
ATOM     18 C18  LIG A   1      24.019  23.756  14.915  1.00 20.00    +0.016 C 
ATOM     19 N19  LIG A   1      23.112  22.645  14.659  1.00 20.00    -0.385 NA
ATOM     20 C20  LIG A   1      22.723  22.250  13.384  1.00 20.00    +0.034 A 
ATOM     21 C21  LIG A   1      23.366  22.650  12.211  1.00 20.00    -0.038 A 
ATOM     22 C22  LIG A   1      22.976  22.152  10.957  1.00 20.00    -0.049 A 
ATOM     23 C23  LIG A   1      21.946  21.212  10.840  1.00 20.00    +0.017 A 
ATOM     24 C24  LIG A   1      21.564  20.677   9.535  1.00 20.00    +0.134 A 
ATOM     25 C25  LIG A   1      21.930  20.949   8.232  1.00 20.00    -0.015 A 
ATOM     26 C26  LIG A   1      21.214  20.044   7.409  1.00 20.00    -0.015 A 
ATOM     27 C27  LIG A   1      20.442  19.267   8.249  1.00 20.00    +0.134 A 
ATOM     28 C28  LIG A   1      19.511  18.159   8.052  1.00 20.00    +0.017 A 
ATOM     29 C29  LIG A   1      19.394  17.535   6.806  1.00 20.00    -0.049 A 
ATOM     30 C30  LIG A   1      18.510  16.461   6.613  1.00 20.00    -0.038 A 
ATOM     31 C31  LIG A   1      17.693  15.996   7.646  1.00 20.00    +0.034 A 
ATOM     32 N32  LIG A   1      16.852  14.893   7.543  1.00 20.00    -0.385 NA
ATOM     33 C33  LIG A   1      16.481  14.296   6.263  1.00 20.00    +0.016 C 
ATOM     34 C34  LIG A   1      17.451  13.178   5.875  1.00 20.00    -0.023 C 
ATOM     35 C35  LIG A   1      17.362  11.955   6.793  1.00 20.00    -0.003 C 
ATOM     36 N36  LIG A   1      16.088  11.250   6.603  1.00 20.00    -0.317 NA
ATOM     37 C37  LIG A   1      15.912  10.153   7.557  1.00 20.00    -0.005 C 
ATOM     38 C38  LIG A   1      15.546  10.612   8.976  1.00 20.00    -0.039 C 
ATOM     39 C39  LIG A   1      14.250  11.431   9.021  1.00 20.00    -0.040 C 
ATOM     40 C40  LIG A   1      13.910  11.960  10.416  1.00 20.00    -0.008 C 
ATOM     41 N41  LIG A   1      13.652  10.904  11.388  1.00 20.00    -0.330 NA
ATOM     42 C42  LIG A   1      17.839  16.605   8.899  1.00 20.00    -0.038 A 
ATOM     43 C43  LIG A   1      18.723  17.672   9.101  1.00 20.00    -0.049 A 
ATOM     44 O44  LIG A   1      20.649  19.662   9.541  1.00 20.00    -0.456 OA
ATOM     45 C45  LIG A   1      21.317  20.788  12.015  1.00 20.00    -0.049 A 
ATOM     46 C46  LIG A   1      21.707  21.292  13.263  1.00 20.00    -0.038 A 
ATOM     47 H47  LIG A   1      20.129  23.111  10.735  1.00 20.00    +0.025 H 
ATOM     48 H48  LIG A   1      18.983  23.018  12.080  1.00 20.00    +0.025 H 
ATOM     49 H49  LIG A   1      20.650  23.550  12.371  1.00 20.00    +0.025 H 
ATOM     50 H50  LIG A   1      21.500  21.289  11.771  1.00 20.00    +0.049 H 
ATOM     51 H51  LIG A   1      20.356  21.214  13.129  1.00 20.00    +0.049 H 
ATOM     52 H52  LIG A   1      19.446  20.846  10.352  1.00 20.00    +0.163 HD
ATOM     53 H53  LIG A   1      20.964  19.145  12.794  1.00 20.00    +0.191 HD
ATOM     54 H54  LIG A   1      18.245  19.131   9.989  1.00 20.00    +0.173 HD
ATOM     55 H55  LIG A   1      20.061  16.638  11.291  1.00 20.00    +0.191 HD
ATOM     56 H56  LIG A   1      17.640  15.965   9.179  1.00 20.00    +0.159 HD
ATOM     57 H57  LIG A   1      16.788  17.288   9.654  1.00 20.00    +0.159 HD
ATOM     58 H58  LIG A   1      22.200  31.717  17.898  1.00 20.00    +0.118 HD
ATOM     59 H59  LIG A   1      22.660  31.794  16.342  1.00 20.00    +0.118 HD
ATOM     60 H60  LIG A   1      20.469  31.188  15.584  1.00 20.00    +0.043 H 
ATOM     61 H61  LIG A   1      19.959  31.116  17.273  1.00 20.00    +0.043 H 
ATOM     62 H62  LIG A   1      21.675  29.332  17.714  1.00 20.00    +0.028 H 
ATOM     63 H63  LIG A   1      22.186  29.413  16.027  1.00 20.00    +0.028 H 
ATOM     64 H64  LIG A   1      19.360  28.688  16.980  1.00 20.00    +0.028 H 
ATOM     65 H65  LIG A   1      19.882  28.721  15.299  1.00 20.00    +0.028 H 
ATOM     66 H66  LIG A   1      19.821  26.422  16.267  1.00 20.00    +0.043 H 
ATOM     67 H67  LIG A   1      21.007  26.900  17.493  1.00 20.00    +0.043 H 
ATOM     68 H68  LIG A   1      21.429  26.905  14.569  1.00 20.00    +0.122 HD
ATOM     69 H69  LIG A   1      21.414  24.694  15.525  1.00 20.00    +0.043 H 
ATOM     70 H70  LIG A   1      22.610  25.257  16.711  1.00 20.00    +0.043 H 
ATOM     71 H71  LIG A   1      22.989  25.209  13.670  1.00 20.00    +0.030 H 
ATOM     72 H72  LIG A   1      24.144  25.888  14.810  1.00 20.00    +0.030 H 
ATOM     73 H73  LIG A   1      24.926  23.667  14.306  1.00 20.00    +0.049 H 
ATOM     74 H74  LIG A   1      24.356  23.682  15.955  1.00 20.00    +0.049 H 
ATOM     75 H75  LIG A   1      22.392  22.517  15.362  1.00 20.00    +0.160 HD
ATOM     76 H76  LIG A   1      24.189  23.357  12.237  1.00 20.00    +0.064 H 
ATOM     77 H77  LIG A   1      23.509  22.502  10.077  1.00 20.00    +0.063 H 
ATOM     78 H78  LIG A   1      22.634  21.702   7.909  1.00 20.00    +0.066 H 
ATOM     79 H79  LIG A   1      21.263  19.969   6.332  1.00 20.00    +0.066 H 
ATOM     80 H80  LIG A   1      20.001  17.858   5.964  1.00 20.00    +0.063 H 
ATOM     81 H81  LIG A   1      18.484  16.002   5.630  1.00 20.00    +0.064 H 
ATOM     82 H82  LIG A   1      16.085  14.916   8.209  1.00 20.00    +0.160 HD
ATOM     83 H83  LIG A   1      15.464  13.892   6.352  1.00 20.00    +0.049 H 
ATOM     84 H84  LIG A   1      16.427  15.054   5.472  1.00 20.00    +0.049 H 
ATOM     85 H85  LIG A   1      17.249  12.874   4.838  1.00 20.00    +0.030 H 
ATOM     86 H86  LIG A   1      18.482  13.549   5.893  1.00 20.00    +0.030 H 
ATOM     87 H87  LIG A   1      18.188  11.274   6.555  1.00 20.00    +0.043 H 
ATOM     88 H88  LIG A   1      17.492  12.274   7.831  1.00 20.00    +0.043 H 
ATOM     89 H89  LIG A   1      16.071  10.865   5.657  1.00 20.00    +0.122 HD
ATOM     90 H90  LIG A   1      15.101   9.515   7.186  1.00 20.00    +0.043 H 
ATOM     91 H91  LIG A   1      16.809   9.521   7.588  1.00 20.00    +0.043 H 
ATOM     92 H92  LIG A   1      16.368  11.189   9.415  1.00 20.00    +0.028 H 
ATOM     93 H93  LIG A   1      15.434   9.714   9.595  1.00 20.00    +0.028 H 
ATOM     94 H94  LIG A   1      13.420  10.822   8.644  1.00 20.00    +0.028 H 
ATOM     95 H95  LIG A   1      14.335  12.295   8.352  1.00 20.00    +0.028 H 
ATOM     96 H96  LIG A   1      14.719  12.602  10.786  1.00 20.00    +0.043 H 
ATOM     97 H97  LIG A   1      13.014  12.587  10.345  1.00 20.00    +0.043 H 
ATOM     98 H98  LIG A   1      12.952  10.263  11.018  1.00 20.00    +0.118 HD
ATOM     99 H99  LIG A   1      14.495  10.350  11.529  1.00 20.00    +0.118 HD
ATOM    100 H100 LIG A   1      17.264  16.243   9.749  1.00 20.00    +0.064 H 
ATOM    101 H101 LIG A   1      18.796  18.112  10.094  1.00 20.00    +0.063 H 
ATOM    102 H102 LIG A   1      20.521  20.047  11.979  1.00 20.00    +0.063 H 
ATOM    103 H103 LIG A   1      21.209  20.913  14.152  1.00 20.00    +0.064 H 
ENDROOT
TORSDOF 0
                                                                                                          
ENDMDL
MODEL 2
REMARK VINA RESULT:   -11.375      2.697     13.267
REMARK INTER + INTRA:         -11.375
REMARK INTER:                 -11.375
REMARK INTRA:                   0.000
REMARK UNBOUND:                 0.000
ROOT
ATOM      1 C1   LIG A   1      17.540  16.034   8.765  1.00 20.00    -0.048 C 
ATOM      2 C2   LIG A   1      18.291  17.271   8.302  1.00 20.00    +0.015 C 
ATOM      3 N3   LIG A   1      18.599  18.119   9.443  1.00 20.00    -0.357 NA
ATOM      4 C4   LIG A   1      19.191  19.345   9.342  1.00 20.00    +0.195 C 
ATOM      5 N5   LIG A   1      19.470  19.951   8.237  1.00 20.00    -0.269 NA
ATOM      6 N6   LIG A   1      19.452  19.902  10.560  1.00 20.00    -0.298 NA
ATOM      7 C7   LIG A   1      20.109  21.032  10.920  1.00 20.00    +0.192 C 
ATOM      8 N8   LIG A   1      20.735  21.843  10.142  1.00 20.00    -0.269 NA
ATOM      9 N9   LIG A   1      20.089  21.291  12.249  1.00 20.00    -0.370 NA
ATOM     10 N10  LIG A   1      11.624   8.903   3.627  1.00 20.00    -0.330 NA
ATOM     11 C11  LIG A   1      11.569   9.977   4.614  1.00 20.00    -0.008 C 
ATOM     12 C12  LIG A   1      12.482  11.135   4.215  1.00 20.00    -0.040 C 
ATOM     13 C13  LIG A   1      12.422  12.267   5.247  1.00 20.00    -0.039 C 
ATOM     14 C14  LIG A   1      13.277  13.476   4.855  1.00 20.00    -0.005 C 
ATOM     15 N15  LIG A   1      14.696  13.120   4.806  1.00 20.00    -0.317 NA
ATOM     16 C16  LIG A   1      15.516  14.257   4.379  1.00 20.00    -0.003 C 
ATOM     17 C17  LIG A   1      16.988  13.844   4.340  1.00 20.00    -0.023 C 
ATOM     18 C18  LIG A   1      17.885  14.934   3.751  1.00 20.00    +0.016 C 
ATOM     19 N19  LIG A   1      17.930  16.138   4.571  1.00 20.00    -0.385 NA
ATOM     20 C20  LIG A   1      18.621  16.223   5.773  1.00 20.00    +0.034 A 
ATOM     21 C21  LIG A   1      19.585  15.301   6.188  1.00 20.00    -0.038 A 
ATOM     22 C22  LIG A   1      20.309  15.484   7.377  1.00 20.00    -0.049 A 
ATOM     23 C23  LIG A   1      20.112  16.617   8.176  1.00 20.00    +0.017 A 
ATOM     24 C24  LIG A   1      20.888  16.816   9.398  1.00 20.00    +0.134 A 
ATOM     25 C25  LIG A   1      21.804  16.056  10.099  1.00 20.00    -0.015 A 
ATOM     26 C26  LIG A   1      22.229  16.840  11.200  1.00 20.00    -0.015 A 
ATOM     27 C27  LIG A   1      21.549  18.039  11.121  1.00 20.00    +0.134 A 
ATOM     28 C28  LIG A   1      21.541  19.266  11.913  1.00 20.00    +0.017 A 
ATOM     29 C29  LIG A   1      22.496  19.480  12.912  1.00 20.00    -0.049 A 
ATOM     30 C30  LIG A   1      22.501  20.663  13.669  1.00 20.00    -0.038 A 
ATOM     31 C31  LIG A   1      21.536  21.655  13.475  1.00 20.00    +0.034 A 
ATOM     32 N32  LIG A   1      21.528  22.878  14.138  1.00 20.00    -0.385 NA
ATOM     33 C33  LIG A   1      22.323  23.137  15.334  1.00 20.00    +0.016 C 
ATOM     34 C34  LIG A   1      23.692  23.718  14.971  1.00 20.00    -0.023 C 
ATOM     35 C35  LIG A   1      23.612  25.127  14.375  1.00 20.00    -0.003 C 
ATOM     36 N36  LIG A   1      23.195  26.101  15.391  1.00 20.00    -0.317 NA
ATOM     37 C37  LIG A   1      22.981  27.435  14.827  1.00 20.00    -0.005 C 
ATOM     38 C38  LIG A   1      21.674  27.574  14.033  1.00 20.00    -0.039 C 
ATOM     39 C39  LIG A   1      20.430  27.260  14.873  1.00 20.00    -0.040 C 
ATOM     40 C40  LIG A   1      19.124  27.320  14.078  1.00 20.00    -0.008 C 
ATOM     41 N41  LIG A   1      18.827  28.648  13.555  1.00 20.00    -0.330 NA
ATOM     42 C42  LIG A   1      20.603  21.448  12.452  1.00 20.00    -0.038 A 
ATOM     43 C43  LIG A   1      20.596  20.274  11.689  1.00 20.00    -0.049 A 
ATOM     44 O44  LIG A   1      20.726  18.016  10.030  1.00 20.00    -0.456 OA
ATOM     45 C45  LIG A   1      19.168  17.557   7.751  1.00 20.00    -0.049 A 
ATOM     46 C46  LIG A   1      18.445  17.365   6.566  1.00 20.00    -0.038 A 
ATOM     47 H47  LIG A   1      18.141  15.449   9.469  1.00 20.00    +0.025 H 
ATOM     48 H48  LIG A   1      16.606  16.306   9.267  1.00 20.00    +0.025 H 
ATOM     49 H49  LIG A   1      17.296  15.394   7.911  1.00 20.00    +0.025 H 
ATOM     50 H50  LIG A   1      19.217  16.974   7.798  1.00 20.00    +0.049 H 
ATOM     51 H51  LIG A   1      17.668  17.818   7.586  1.00 20.00    +0.049 H 
ATOM     52 H52  LIG A   1      18.918  17.580  10.242  1.00 20.00    +0.163 HD
ATOM     53 H53  LIG A   1      19.183  19.383   7.441  1.00 20.00    +0.191 HD
ATOM     54 H54  LIG A   1      19.098  19.387  11.348  1.00 20.00    +0.173 HD
ATOM     55 H55  LIG A   1      20.602  21.456   9.188  1.00 20.00    +0.191 HD
ATOM     56 H56  LIG A   1      20.582  22.171  12.391  1.00 20.00    +0.159 HD
ATOM     57 H57  LIG A   1      19.148  21.396  12.608  1.00 20.00    +0.159 HD
ATOM     58 H58  LIG A   1      11.370   9.272   2.711  1.00 20.00    +0.118 HD
ATOM     59 H59  LIG A   1      12.587   8.580   3.536  1.00 20.00    +0.118 HD
ATOM     60 H60  LIG A   1      11.866   9.579   5.590  1.00 20.00    +0.043 H 
ATOM     61 H61  LIG A   1      10.533  10.323   4.703  1.00 20.00    +0.043 H 
ATOM     62 H62  LIG A   1      12.183  11.523   3.233  1.00 20.00    +0.028 H 
ATOM     63 H63  LIG A   1      13.512  10.770   4.118  1.00 20.00    +0.028 H 
ATOM     64 H64  LIG A   1      11.383  12.602   5.356  1.00 20.00    +0.028 H 
ATOM     65 H65  LIG A   1      12.736  11.892   6.229  1.00 20.00    +0.028 H 
ATOM     66 H66  LIG A   1      13.117  14.273   5.591  1.00 20.00    +0.043 H 
ATOM     67 H67  LIG A   1      12.945  13.849   3.879  1.00 20.00    +0.043 H 
ATOM     68 H68  LIG A   1      15.000  12.812   5.731  1.00 20.00    +0.122 HD
ATOM     69 H69  LIG A   1      15.380  15.098   5.069  1.00 20.00    +0.043 H 
ATOM     70 H70  LIG A   1      15.202  14.581   3.379  1.00 20.00    +0.043 H 
ATOM     71 H71  LIG A   1      17.324  13.569   5.346  1.00 20.00    +0.030 H 
ATOM     72 H72  LIG A   1      17.095  12.948   3.716  1.00 20.00    +0.030 H 
ATOM     73 H73  LIG A   1      18.894  14.542   3.580  1.00 20.00    +0.049 H 
ATOM     74 H74  LIG A   1      17.508  15.215   2.761  1.00 20.00    +0.049 H 
ATOM     75 H75  LIG A   1      17.082  16.695   4.548  1.00 20.00    +0.160 HD
ATOM     76 H76  LIG A   1      19.802  14.415   5.600  1.00 20.00    +0.064 H 
ATOM     77 H77  LIG A   1      21.043  14.732   7.654  1.00 20.00    +0.063 H 
ATOM     78 H78  LIG A   1      22.135  15.059   9.846  1.00 20.00    +0.066 H 
ATOM     79 H79  LIG A   1      22.949  16.562  11.955  1.00 20.00    +0.066 H 
ATOM     80 H80  LIG A   1      23.267  18.740  13.110  1.00 20.00    +0.063 H 
ATOM     81 H81  LIG A   1      23.283  20.782  14.411  1.00 20.00    +0.064 H 
ATOM     82 H82  LIG A   1      20.605  23.304  14.174  1.00 20.00    +0.160 HD
ATOM     83 H83  LIG A   1      21.775  23.846  15.968  1.00 20.00    +0.049 H 
ATOM     84 H84  LIG A   1      22.436  22.230  15.941  1.00 20.00    +0.049 H 
ATOM     85 H85  LIG A   1      24.322  23.735  15.871  1.00 20.00    +0.030 H 
ATOM     86 H86  LIG A   1      24.199  23.066  14.251  1.00 20.00    +0.030 H 
ATOM     87 H87  LIG A   1      24.602  25.405  13.994  1.00 20.00    +0.043 H 
ATOM     88 H88  LIG A   1      22.926  25.118  13.523  1.00 20.00    +0.043 H 
ATOM     89 H89  LIG A   1      23.929  26.161  16.099  1.00 20.00    +0.122 HD
ATOM     90 H90  LIG A   1      22.951  28.149  15.659  1.00 20.00    +0.043 H 
ATOM     91 H91  LIG A   1      23.832  27.731  14.200  1.00 20.00    +0.043 H 
ATOM     92 H92  LIG A   1      21.696  26.933  13.144  1.00 20.00    +0.028 H 
ATOM     93 H93  LIG A   1      21.618  28.606  13.667  1.00 20.00    +0.028 H 
ATOM     94 H94  LIG A   1      20.378  27.952  15.722  1.00 20.00    +0.028 H 
ATOM     95 H95  LIG A   1      20.514  26.251  15.294  1.00 20.00    +0.028 H 
ATOM     96 H96  LIG A   1      19.152  26.603  13.247  1.00 20.00    +0.043 H 
ATOM     97 H97  LIG A   1      18.299  27.016  14.733  1.00 20.00    +0.043 H 
ATOM     98 H98  LIG A   1      18.870  29.331  14.311  1.00 20.00    +0.118 HD
ATOM     99 H99  LIG A   1      19.541  28.925  12.884  1.00 20.00    +0.118 HD
ATOM    100 H100 LIG A   1      19.865  22.215  12.227  1.00 20.00    +0.064 H 
ATOM    101 H101 LIG A   1      19.846  20.161  10.908  1.00 20.00    +0.063 H 
ATOM    102 H102 LIG A   1      18.990  18.461   8.329  1.00 20.00    +0.063 H 
ATOM    103 H103 LIG A   1      17.741  18.136   6.260  1.00 20.00    +0.064 H 
ENDROOT
TORSDOF 0
                                                                                                          
ENDMDL
MODEL 3
REMARK VINA RESULT:   -11.290      2.693     13.552
REMARK INTER + INTRA:         -11.290
REMARK INTER:                 -11.290
REMARK INTRA:                   0.000
REMARK UNBOUND:                 0.000
ROOT
ATOM      1 C1   LIG A   1      20.861  19.235  12.434  1.00 20.00    -0.048 C 
ATOM      2 C2   LIG A   1      20.188  20.515  11.968  1.00 20.00    +0.015 C 
ATOM      3 N3   LIG A   1      20.343  21.552  12.975  1.00 20.00    -0.357 NA
ATOM      4 C4   LIG A   1      19.773  22.789  12.889  1.00 20.00    +0.195 C 
ATOM      5 N5   LIG A   1      18.958  23.172  11.965  1.00 20.00    -0.269 NA
ATOM      6 N6   LIG A   1      20.140  23.608  13.917  1.00 20.00    -0.298 NA
ATOM      7 C7   LIG A   1      19.901  24.919  14.164  1.00 20.00    +0.192 C 
ATOM      8 N8   LIG A   1      19.294  25.752  13.393  1.00 20.00    -0.269 NA
ATOM      9 N9   LIG A   1      20.376  25.360  15.352  1.00 20.00    -0.370 NA
ATOM     10 N10  LIG A   1      19.998   9.143   9.326  1.00 20.00    -0.330 NA
ATOM     11 C11  LIG A   1      19.728  10.054  10.434  1.00 20.00    -0.008 C 
ATOM     12 C12  LIG A   1      19.228  11.404   9.925  1.00 20.00    -0.040 C 
ATOM     13 C13  LIG A   1      18.938  12.362  11.086  1.00 20.00    -0.039 C 
ATOM     14 C14  LIG A   1      18.376  13.708  10.623  1.00 20.00    -0.005 C 
ATOM     15 N15  LIG A   1      19.352  14.431   9.808  1.00 20.00    -0.317 NA
ATOM     16 C16  LIG A   1      18.802  15.696   9.314  1.00 20.00    -0.003 C 
ATOM     17 C17  LIG A   1      19.852  16.418   8.467  1.00 20.00    -0.023 C 
ATOM     18 C18  LIG A   1      19.295  17.671   7.790  1.00 20.00    +0.016 C 
ATOM     19 N19  LIG A   1      18.906  18.706   8.739  1.00 20.00    -0.385 NA
ATOM     20 C20  LIG A   1      19.818  19.492   9.434  1.00 20.00    +0.034 A 
ATOM     21 C21  LIG A   1      21.169  19.604   9.098  1.00 20.00    -0.038 A 
ATOM     22 C22  LIG A   1      22.024  20.478   9.789  1.00 20.00    -0.049 A 
ATOM     23 C23  LIG A   1      21.545  21.293  10.822  1.00 20.00    +0.017 A 
ATOM     24 C24  LIG A   1      22.434  22.220  11.518  1.00 20.00    +0.134 A 
ATOM     25 C25  LIG A   1      23.791  22.471  11.485  1.00 20.00    -0.015 A 
ATOM     26 C26  LIG A   1      24.033  23.536  12.387  1.00 20.00    -0.015 A 
ATOM     27 C27  LIG A   1      22.812  23.881  12.932  1.00 20.00    +0.134 A 
ATOM     28 C28  LIG A   1      22.366  24.890  13.890  1.00 20.00    +0.017 A 
ATOM     29 C29  LIG A   1      23.229  25.904  14.315  1.00 20.00    -0.049 A 
ATOM     30 C30  LIG A   1      22.802  26.885  15.226  1.00 20.00    -0.038 A 
ATOM     31 C31  LIG A   1      21.514  26.866  15.765  1.00 20.00    +0.034 A 
ATOM     32 N32  LIG A   1      21.006  27.845  16.612  1.00 20.00    -0.385 NA
ATOM     33 C33  LIG A   1      21.851  28.822  17.291  1.00 20.00    +0.016 C 
ATOM     34 C34  LIG A   1      22.006  30.094  16.455  1.00 20.00    -0.023 C 
ATOM     35 C35  LIG A   1      20.705  30.892  16.321  1.00 20.00    -0.003 C 
ATOM     36 N36  LIG A   1      20.324  31.490  17.607  1.00 20.00    -0.317 NA
ATOM     37 C37  LIG A   1      19.018  32.149  17.548  1.00 20.00    -0.005 C 
ATOM     38 C38  LIG A   1      17.828  31.178  17.549  1.00 20.00    -0.039 C 
ATOM     39 C39  LIG A   1      17.797  30.276  18.788  1.00 20.00    -0.040 C 
ATOM     40 C40  LIG A   1      16.660  29.251  18.769  1.00 20.00    -0.008 C 
ATOM     41 N41  LIG A   1      15.334  29.858  18.785  1.00 20.00    -0.330 NA
ATOM     42 C42  LIG A   1      20.645  25.866  15.309  1.00 20.00    -0.038 A 
ATOM     43 C43  LIG A   1      21.062  24.889  14.396  1.00 20.00    -0.049 A 
ATOM     44 O44  LIG A   1      21.844  23.071  12.410  1.00 20.00    -0.456 OA
ATOM     45 C45  LIG A   1      20.186  21.204  11.144  1.00 20.00    -0.049 A 
ATOM     46 C46  LIG A   1      19.340  20.326  10.453  1.00 20.00    -0.038 A 
ATOM     47 H47  LIG A   1      21.932  19.391  12.597  1.00 20.00    +0.025 H 
ATOM     48 H48  LIG A   1      20.426  18.883  13.375  1.00 20.00    +0.025 H 
ATOM     49 H49  LIG A   1      20.741  18.446  11.684  1.00 20.00    +0.025 H 
ATOM     50 H50  LIG A   1      20.634  20.844  11.023  1.00 20.00    +0.049 H 
ATOM     51 H51  LIG A   1      19.124  20.315  11.796  1.00 20.00    +0.049 H 
ATOM     52 H52  LIG A   1      21.279  21.564  13.367  1.00 20.00    +0.163 HD
ATOM     53 H53  LIG A   1      18.795  22.415  11.302  1.00 20.00    +0.191 HD
ATOM     54 H54  LIG A   1      20.695  23.169  14.632  1.00 20.00    +0.173 HD
ATOM     55 H55  LIG A   1      19.011  25.194  12.565  1.00 20.00    +0.191 HD
ATOM     56 H56  LIG A   1      20.111  26.340  15.437  1.00 20.00    +0.159 HD
ATOM     57 H57  LIG A   1      19.981  24.858  16.137  1.00 20.00    +0.159 HD
ATOM     58 H58  LIG A   1      19.153   9.034   8.765  1.00 20.00    +0.118 HD
ATOM     59 H59  LIG A   1      20.688   9.565   8.705  1.00 20.00    +0.118 HD
ATOM     60 H60  LIG A   1      20.646  10.185  11.018  1.00 20.00    +0.043 H 
ATOM     61 H61  LIG A   1      18.983   9.597  11.095  1.00 20.00    +0.043 H 
ATOM     62 H62  LIG A   1      18.314  11.263   9.334  1.00 20.00    +0.028 H 
ATOM     63 H63  LIG A   1      19.979  11.842   9.256  1.00 20.00    +0.028 H 
ATOM     64 H64  LIG A   1      18.208  11.898  11.762  1.00 20.00    +0.028 H 
ATOM     65 H65  LIG A   1      19.852  12.522  11.673  1.00 20.00    +0.028 H 
ATOM     66 H66  LIG A   1      18.113  14.303  11.506  1.00 20.00    +0.043 H 
ATOM     67 H67  LIG A   1      17.457  13.534  10.050  1.00 20.00    +0.043 H 
ATOM     68 H68  LIG A   1      20.187  14.619  10.365  1.00 20.00    +0.122 HD
ATOM     69 H69  LIG A   1      18.501  16.328  10.157  1.00 20.00    +0.043 H 
ATOM     70 H70  LIG A   1      17.915  15.497   8.701  1.00 20.00    +0.043 H 
ATOM     71 H71  LIG A   1      20.721  16.669   9.087  1.00 20.00    +0.030 H 
ATOM     72 H72  LIG A   1      20.209  15.742   7.681  1.00 20.00    +0.030 H 
ATOM     73 H73  LIG A   1      20.016  18.061   7.063  1.00 20.00    +0.049 H 
ATOM     74 H74  LIG A   1      18.407  17.400   7.206  1.00 20.00    +0.049 H 
ATOM     75 H75  LIG A   1      18.062  18.503   9.263  1.00 20.00    +0.160 HD
ATOM     76 H76  LIG A   1      21.596  19.019   8.290  1.00 20.00    +0.064 H 
ATOM     77 H77  LIG A   1      23.068  20.521   9.489  1.00 20.00    +0.063 H 
ATOM     78 H78  LIG A   1      24.522  21.956  10.878  1.00 20.00    +0.066 H 
ATOM     79 H79  LIG A   1      24.985  23.997  12.608  1.00 20.00    +0.066 H 
ATOM     80 H80  LIG A   1      24.245  25.965  13.933  1.00 20.00    +0.063 H 
ATOM     81 H81  LIG A   1      23.510  27.661  15.497  1.00 20.00    +0.064 H 
ATOM     82 H82  LIG A   1      20.240  27.511  17.191  1.00 20.00    +0.160 HD
ATOM     83 H83  LIG A   1      21.390  29.066  18.257  1.00 20.00    +0.049 H 
ATOM     84 H84  LIG A   1      22.832  28.397  17.536  1.00 20.00    +0.049 H 
ATOM     85 H85  LIG A   1      22.780  30.728  16.910  1.00 20.00    +0.030 H 
ATOM     86 H86  LIG A   1      22.362  29.844  15.449  1.00 20.00    +0.030 H 
ATOM     87 H87  LIG A   1      20.854  31.689  15.584  1.00 20.00    +0.043 H 
ATOM     88 H88  LIG A   1      19.918  30.235  15.937  1.00 20.00    +0.043 H 
ATOM     89 H89  LIG A   1      21.028  32.185  17.860  1.00 20.00    +0.122 HD
ATOM     90 H90  LIG A   1      18.930  32.796  18.429  1.00 20.00    +0.043 H 
ATOM     91 H91  LIG A   1      18.959  32.812  16.675  1.00 20.00    +0.043 H 
ATOM     92 H92  LIG A   1      17.834  30.565  16.640  1.00 20.00    +0.028 H 
ATOM     93 H93  LIG A   1      16.912  31.779  17.510  1.00 20.00    +0.028 H 
ATOM     94 H94  LIG A   1      17.720  30.896  19.690  1.00 20.00    +0.028 H 
ATOM     95 H95  LIG A   1      18.739  29.722  18.866  1.00 20.00    +0.028 H 
ATOM     96 H96  LIG A   1      16.749  28.602  17.889  1.00 20.00    +0.043 H 
ATOM     97 H97  LIG A   1      16.753  28.607  19.651  1.00 20.00    +0.043 H 
ATOM     98 H98  LIG A   1      15.269  30.518  19.559  1.00 20.00    +0.118 HD
ATOM     99 H99  LIG A   1      15.193  30.404  17.936  1.00 20.00    +0.118 HD
ATOM    100 H100 LIG A   1      19.615  25.841  15.658  1.00 20.00    +0.064 H 
ATOM    101 H101 LIG A   1      20.348  24.131  14.078  1.00 20.00    +0.063 H 
ATOM    102 H102 LIG A   1      19.763  21.827  11.928  1.00 20.00    +0.063 H 
ATOM    103 H103 LIG A   1      18.285  20.311  10.719  1.00 20.00    +0.064 H 
ENDROOT
TORSDOF 0
                                                                                                          
ENDMDL
MODEL 4
REMARK VINA RESULT:   -11.200      2.752     13.280
REMARK INTER + INTRA:         -11.200
REMARK INTER:                 -11.200
REMARK INTRA:                   0.000
REMARK UNBOUND:                 0.000
ROOT
ATOM      1 C1   LIG A   1      18.599  17.146   8.606  1.00 20.00    -0.048 C 
ATOM      2 C2   LIG A   1      19.196  18.483   8.199  1.00 20.00    +0.015 C 
ATOM      3 N3   LIG A   1      19.153  19.407   9.321  1.00 20.00    -0.357 NA
ATOM      4 C4   LIG A   1      19.535  20.715   9.245  1.00 20.00    +0.195 C 
ATOM      5 N5   LIG A   1      19.894  21.326   8.167  1.00 20.00    -0.269 NA
ATOM      6 N6   LIG A   1      19.482  21.347  10.453  1.00 20.00    -0.298 NA
ATOM      7 C7   LIG A   1      19.864  22.586  10.847  1.00 20.00    +0.192 C 
ATOM      8 N8   LIG A   1      20.468  23.472  10.136  1.00 20.00    -0.269 NA
ATOM      9 N9   LIG A   1      19.570  22.879  12.136  1.00 20.00    -0.370 NA
ATOM     10 N10  LIG A   1      14.968   8.918   3.005  1.00 20.00    -0.330 NA
ATOM     11 C11  LIG A   1      14.561   9.996   3.902  1.00 20.00    -0.008 C 
ATOM     12 C12  LIG A   1      15.317  11.285   3.590  1.00 20.00    -0.040 C 
ATOM     13 C13  LIG A   1      14.888  12.419   4.527  1.00 20.00    -0.039 C 
ATOM     14 C14  LIG A   1      15.578  13.748   4.209  1.00 20.00    -0.005 C 
ATOM     15 N15  LIG A   1      17.023  13.651   4.417  1.00 20.00    -0.317 NA
ATOM     16 C16  LIG A   1      17.699  14.901   4.062  1.00 20.00    -0.003 C 
ATOM     17 C17  LIG A   1      19.204  14.757   4.292  1.00 20.00    -0.023 C 
ATOM     18 C18  LIG A   1      19.990  15.971   3.795  1.00 20.00    +0.016 C 
ATOM     19 N19  LIG A   1      19.686  17.189   4.535  1.00 20.00    -0.385 NA
ATOM     20 C20  LIG A   1      20.134  17.433   5.828  1.00 20.00    +0.034 A 
ATOM     21 C21  LIG A   1      21.154  16.711   6.452  1.00 20.00    -0.038 A 
ATOM     22 C22  LIG A   1      21.619  17.057   7.731  1.00 20.00    -0.049 A 
ATOM     23 C23  LIG A   1      21.096  18.161   8.416  1.00 20.00    +0.017 A 
ATOM     24 C24  LIG A   1      21.604  18.532   9.734  1.00 20.00    +0.134 A 
ATOM     25 C25  LIG A   1      22.500  17.971  10.622  1.00 20.00    -0.015 A 
ATOM     26 C26  LIG A   1      22.587  18.852  11.728  1.00 20.00    -0.015 A 
ATOM     27 C27  LIG A   1      21.737  19.907  11.465  1.00 20.00    +0.134 A 
ATOM     28 C28  LIG A   1      21.382  21.136  12.169  1.00 20.00    +0.017 A 
ATOM     29 C29  LIG A   1      22.099  21.548  13.297  1.00 20.00    -0.049 A 
ATOM     30 C30  LIG A   1      21.770  22.736  13.970  1.00 20.00    -0.038 A 
ATOM     31 C31  LIG A   1      20.699  23.533  13.561  1.00 20.00    +0.034 A 
ATOM     32 N32  LIG A   1      20.368  24.754  14.137  1.00 20.00    -0.385 NA
ATOM     33 C33  LIG A   1      20.888  25.188  15.430  1.00 20.00    +0.016 C 
ATOM     34 C34  LIG A   1      22.179  25.993  15.264  1.00 20.00    -0.023 C 
ATOM     35 C35  LIG A   1      21.965  27.346  14.578  1.00 20.00    -0.003 C 
ATOM     36 N36  LIG A   1      21.218  28.261  15.450  1.00 20.00    -0.317 NA
ATOM     37 C37  LIG A   1      20.880  29.517  14.777  1.00 20.00    -0.005 C 
ATOM     38 C38  LIG A   1      19.726  29.396  13.772  1.00 20.00    -0.039 C 
ATOM     39 C39  LIG A   1      18.428  28.891  14.412  1.00 20.00    -0.040 C 
ATOM     40 C40  LIG A   1      17.288  28.692  13.410  1.00 20.00    -0.008 C 
ATOM     41 N41  LIG A   1      16.863  29.929  12.766  1.00 20.00    -0.330 NA
ATOM     42 C42  LIG A   1      20.006  23.131  12.412  1.00 20.00    -0.038 A 
ATOM     43 C43  LIG A   1      20.332  21.952  11.731  1.00 20.00    -0.049 A 
ATOM     44 O44  LIG A   1      21.132  19.704  10.257  1.00 20.00    -0.456 OA
ATOM     45 C45  LIG A   1      20.093  18.903   7.784  1.00 20.00    -0.049 A 
ATOM     46 C46  LIG A   1      19.630  18.549   6.509  1.00 20.00    -0.038 A 
ATOM     47 H47  LIG A   1      19.160  16.700   9.433  1.00 20.00    +0.025 H 
ATOM     48 H48  LIG A   1      17.560  17.263   8.929  1.00 20.00    +0.025 H 
ATOM     49 H49  LIG A   1      18.620  16.447   7.764  1.00 20.00    +0.025 H 
ATOM     50 H50  LIG A   1      20.233  18.341   7.874  1.00 20.00    +0.049 H 
ATOM     51 H51  LIG A   1      18.622  18.887   7.358  1.00 20.00    +0.049 H 
ATOM     52 H52  LIG A   1      19.415  18.959  10.193  1.00 20.00    +0.163 HD
ATOM     53 H53  LIG A   1      19.850  20.692   7.370  1.00 20.00    +0.191 HD
ATOM     54 H54  LIG A   1      19.090  20.801  11.201  1.00 20.00    +0.173 HD
ATOM     55 H55  LIG A   1      20.570  23.038   9.197  1.00 20.00    +0.191 HD
ATOM     56 H56  LIG A   1      19.873  23.837  12.304  1.00 20.00    +0.159 HD
ATOM     57 H57  LIG A   1      18.578  22.825  12.328  1.00 20.00    +0.159 HD
ATOM     58 H58  LIG A   1      14.818   9.208   2.039  1.00 20.00    +0.118 HD
ATOM     59 H59  LIG A   1      15.973   8.770   3.094  1.00 20.00    +0.118 HD
ATOM     60 H60  LIG A   1      14.747   9.687   4.936  1.00 20.00    +0.043 H 
ATOM     61 H61  LIG A   1      13.481  10.153   3.798  1.00 20.00    +0.043 H 
ATOM     62 H62  LIG A   1      15.132  11.583   2.550  1.00 20.00    +0.028 H 
ATOM     63 H63  LIG A   1      16.396  11.107   3.686  1.00 20.00    +0.028 H 
ATOM     64 H64  LIG A   1      13.803  12.566   4.442  1.00 20.00    +0.028 H 
ATOM     65 H65  LIG A   1      15.086  12.136   5.569  1.00 20.00    +0.028 H 
ATOM     66 H66  LIG A   1      15.159  14.527   4.858  1.00 20.00    +0.043 H 
ATOM     67 H67  LIG A   1      15.361  14.026   3.170  1.00 20.00    +0.043 H 
ATOM     68 H68  LIG A   1      17.211  13.431   5.396  1.00 20.00    +0.122 HD
ATOM     69 H69  LIG A   1      17.304  15.726   4.668  1.00 20.00    +0.043 H 
ATOM     70 H70  LIG A   1      17.513  15.133   3.006  1.00 20.00    +0.043 H 
ATOM     71 H71  LIG A   1      19.402  14.578   5.355  1.00 20.00    +0.030 H 
ATOM     72 H72  LIG A   1      19.569  13.876   3.750  1.00 20.00    +0.030 H 
ATOM     73 H73  LIG A   1      21.066  15.761   3.817  1.00 20.00    +0.049 H 
ATOM     74 H74  LIG A   1      19.748  16.150   2.740  1.00 20.00    +0.049 H 
ATOM     75 H75  LIG A   1      18.773  17.585   4.339  1.00 20.00    +0.160 HD
ATOM     76 H76  LIG A   1      21.618  15.860   5.962  1.00 20.00    +0.064 H 
ATOM     77 H77  LIG A   1      22.411  16.457   8.170  1.00 20.00    +0.063 H 
ATOM     78 H78  LIG A   1      23.034  17.041  10.488  1.00 20.00    +0.066 H 
ATOM     79 H79  LIG A   1      23.203  18.730  12.608  1.00 20.00    +0.066 H 
ATOM     80 H80  LIG A   1      22.939  20.964  13.664  1.00 20.00    +0.063 H 
ATOM     81 H81  LIG A   1      22.381  23.015  14.823  1.00 20.00    +0.064 H 
ATOM     82 H82  LIG A   1      19.394  25.010  13.994  1.00 20.00    +0.160 HD
ATOM     83 H83  LIG A   1      20.125  25.808  15.920  1.00 20.00    +0.049 H 
ATOM     84 H84  LIG A   1      21.046  24.336  16.101  1.00 20.00    +0.049 H 
ATOM     85 H85  LIG A   1      22.631  26.151  16.253  1.00 20.00    +0.030 H 
ATOM     86 H86  LIG A   1      22.907  25.421  14.678  1.00 20.00    +0.030 H 
ATOM     87 H87  LIG A   1      22.943  27.785  14.349  1.00 20.00    +0.043 H 
ATOM     88 H88  LIG A   1      21.448  27.189  13.626  1.00 20.00    +0.043 H 
ATOM     89 H89  LIG A   1      21.796  28.473  16.264  1.00 20.00    +0.122 HD
ATOM     90 H90  LIG A   1      20.585  30.240  15.548  1.00 20.00    +0.043 H 
ATOM     91 H91  LIG A   1      21.763  29.941  14.284  1.00 20.00    +0.043 H 
ATOM     92 H92  LIG A   1      20.011  28.742  12.939  1.00 20.00    +0.028 H 
ATOM     93 H93  LIG A   1      19.558  30.390  13.340  1.00 20.00    +0.028 H 
ATOM     94 H94  LIG A   1      18.112  29.588  15.197  1.00 20.00    +0.028 H 
ATOM     95 H95  LIG A   1      18.608  27.927  14.902  1.00 20.00    +0.028 H 
ATOM     96 H96  LIG A   1      17.581  27.967  12.641  1.00 20.00    +0.043 H 
ATOM     97 H97  LIG A   1      16.426  28.266  13.937  1.00 20.00    +0.043 H 
ATOM     98 H98  LIG A   1      16.658  30.631  13.475  1.00 20.00    +0.118 HD
ATOM     99 H99  LIG A   1      17.626  30.308  12.206  1.00 20.00    +0.118 HD
ATOM    100 H100 LIG A   1      19.199  23.747  12.021  1.00 20.00    +0.064 H 
ATOM    101 H101 LIG A   1      19.760  21.683  10.845  1.00 20.00    +0.063 H 
ATOM    102 H102 LIG A   1      19.666  19.779   8.268  1.00 20.00    +0.063 H 
ATOM    103 H103 LIG A   1      18.870  19.172   6.045  1.00 20.00    +0.064 H 
ENDROOT
TORSDOF 0
                                                                                                          
ENDMDL
MODEL 5
REMARK VINA RESULT:   -11.121      4.288     12.901
REMARK INTER + INTRA:         -11.121
REMARK INTER:                 -11.121
REMARK INTRA:                   0.000
REMARK UNBOUND:                 0.000
ROOT
ATOM      1 C1   LIG A   1      21.286  19.471  13.085  1.00 20.00    -0.048 C 
ATOM      2 C2   LIG A   1      20.738  20.612  12.245  1.00 20.00    +0.015 C 
ATOM      3 N3   LIG A   1      20.118  21.607  13.105  1.00 20.00    -0.357 NA
ATOM      4 C4   LIG A   1      19.456  22.708  12.641  1.00 20.00    +0.195 C 
ATOM      5 N5   LIG A   1      19.215  22.966  11.400  1.00 20.00    -0.269 NA
ATOM      6 N6   LIG A   1      19.041  23.531  13.647  1.00 20.00    -0.298 NA
ATOM      7 C7   LIG A   1      18.455  24.753  13.637  1.00 20.00    +0.192 C 
ATOM      8 N8   LIG A   1      18.213  25.486  12.607  1.00 20.00    -0.269 NA
ATOM      9 N9   LIG A   1      18.114  25.221  14.861  1.00 20.00    -0.370 NA
ATOM     10 N10  LIG A   1      24.233   9.580  10.692  1.00 20.00    -0.330 NA
ATOM     11 C11  LIG A   1      23.234  10.362  11.415  1.00 20.00    -0.008 C 
ATOM     12 C12  LIG A   1      22.837  11.608  10.627  1.00 20.00    -0.040 C 
ATOM     13 C13  LIG A   1      21.785  12.428  11.381  1.00 20.00    -0.039 C 
ATOM     14 C14  LIG A   1      21.313  13.656  10.598  1.00 20.00    -0.005 C 
ATOM     15 N15  LIG A   1      22.411  14.600  10.391  1.00 20.00    -0.317 NA
ATOM     16 C16  LIG A   1      21.982  15.752   9.595  1.00 20.00    -0.003 C 
ATOM     17 C17  LIG A   1      23.158  16.712   9.402  1.00 20.00    -0.023 C 
ATOM     18 C18  LIG A   1      22.824  17.860   8.448  1.00 20.00    +0.016 C 
ATOM     19 N19  LIG A   1      21.790  18.748   8.965  1.00 20.00    -0.385 NA
ATOM     20 C20  LIG A   1      22.006  19.664   9.987  1.00 20.00    +0.034 A 
ATOM     21 C21  LIG A   1      23.271  20.062  10.427  1.00 20.00    -0.038 A 
ATOM     22 C22  LIG A   1      23.426  21.053  11.409  1.00 20.00    -0.049 A 
ATOM     23 C23  LIG A   1      22.316  21.703  11.963  1.00 20.00    +0.017 A 
ATOM     24 C24  LIG A   1      22.486  22.753  12.964  1.00 20.00    +0.134 A 
ATOM     25 C25  LIG A   1      23.564  23.272  13.651  1.00 20.00    -0.015 A 
ATOM     26 C26  LIG A   1      23.066  24.317  14.467  1.00 20.00    -0.015 A 
ATOM     27 C27  LIG A   1      21.705  24.383  14.243  1.00 20.00    +0.134 A 
ATOM     28 C28  LIG A   1      20.626  25.233  14.738  1.00 20.00    +0.017 A 
ATOM     29 C29  LIG A   1      20.903  26.377  15.492  1.00 20.00    -0.049 A 
ATOM     30 C30  LIG A   1      19.869  27.205  15.960  1.00 20.00    -0.038 A 
ATOM     31 C31  LIG A   1      18.528  26.901  15.719  1.00 20.00    +0.034 A 
ATOM     32 N32  LIG A   1      17.463  27.715  16.090  1.00 20.00    -0.385 NA
ATOM     33 C33  LIG A   1      17.596  28.806  17.051  1.00 20.00    +0.016 C 
ATOM     34 C34  LIG A   1      17.927  30.124  16.346  1.00 20.00    -0.023 C 
ATOM     35 C35  LIG A   1      16.779  30.651  15.479  1.00 20.00    -0.003 C 
ATOM     36 N36  LIG A   1      15.655  31.095  16.312  1.00 20.00    -0.317 NA
ATOM     37 C37  LIG A   1      14.490  31.481  15.513  1.00 20.00    -0.005 C 
ATOM     38 C38  LIG A   1      13.705  30.293  14.938  1.00 20.00    -0.039 C 
ATOM     39 C39  LIG A   1      13.185  29.342  16.023  1.00 20.00    -0.040 C 
ATOM     40 C40  LIG A   1      12.466  28.112  15.463  1.00 20.00    -0.008 C 
ATOM     41 N41  LIG A   1      11.255  28.439  14.720  1.00 20.00    -0.330 NA
ATOM     42 C42  LIG A   1      18.259  25.771  14.936  1.00 20.00    -0.038 A 
ATOM     43 C43  LIG A   1      19.284  24.945  14.460  1.00 20.00    -0.049 A 
ATOM     44 O44  LIG A   1      21.354  23.423  13.337  1.00 20.00    -0.456 OA
ATOM     45 C45  LIG A   1      21.048  21.327  11.506  1.00 20.00    -0.049 A 
ATOM     46 C46  LIG A   1      20.901  20.333  10.529  1.00 20.00    -0.038 A 
ATOM     47 H47  LIG A   1      22.044  19.830  13.789  1.00 20.00    +0.025 H 
ATOM     48 H48  LIG A   1      20.490  18.992  13.664  1.00 20.00    +0.025 H 
ATOM     49 H49  LIG A   1      21.748  18.713  12.445  1.00 20.00    +0.025 H 
ATOM     50 H50  LIG A   1      21.550  21.071  11.671  1.00 20.00    +0.049 H 
ATOM     51 H51  LIG A   1      20.000  20.212  11.541  1.00 20.00    +0.049 H 
ATOM     52 H52  LIG A   1      20.669  21.787  13.938  1.00 20.00    +0.163 HD
ATOM     53 H53  LIG A   1      19.588  22.226  10.807  1.00 20.00    +0.191 HD
ATOM     54 H54  LIG A   1      19.193  23.177  14.576  1.00 20.00    +0.173 HD
ATOM     55 H55  LIG A   1      18.539  24.924  11.796  1.00 20.00    +0.191 HD
ATOM     56 H56  LIG A   1      17.660  26.122  14.723  1.00 20.00    +0.159 HD
ATOM     57 H57  LIG A   1      17.464  24.611  15.340  1.00 20.00    +0.159 HD
ATOM     58 H58  LIG A   1      23.867   9.332   9.773  1.00 20.00    +0.118 HD
ATOM     59 H59  LIG A   1      25.050  10.162  10.514  1.00 20.00    +0.118 HD
ATOM     60 H60  LIG A   1      23.643  10.645  12.391  1.00 20.00    +0.043 H 
ATOM     61 H61  LIG A   1      22.356   9.732  11.599  1.00 20.00    +0.043 H 
ATOM     62 H62  LIG A   1      22.437  11.316   9.648  1.00 20.00    +0.028 H 
ATOM     63 H63  LIG A   1      23.728  12.221  10.440  1.00 20.00    +0.028 H 
ATOM     64 H64  LIG A   1      20.913  11.795  11.586  1.00 20.00    +0.028 H 
ATOM     65 H65  LIG A   1      22.184  12.739  12.355  1.00 20.00    +0.028 H 
ATOM     66 H66  LIG A   1      20.504  14.141  11.157  1.00 20.00    +0.043 H 
ATOM     67 H67  LIG A   1      20.905  13.331   9.633  1.00 20.00    +0.043 H 
ATOM     68 H68  LIG A   1      22.755  14.924  11.297  1.00 20.00    +0.122 HD
ATOM     69 H69  LIG A   1      21.155  16.268  10.097  1.00 20.00    +0.043 H 
ATOM     70 H70  LIG A   1      21.627  15.411   8.615  1.00 20.00    +0.043 H 
ATOM     71 H71  LIG A   1      23.484  17.100  10.373  1.00 20.00    +0.030 H 
ATOM     72 H72  LIG A   1      24.007  16.161   8.980  1.00 20.00    +0.030 H 
ATOM     73 H73  LIG A   1      23.731  18.423   8.200  1.00 20.00    +0.049 H 
ATOM     74 H74  LIG A   1      22.467  17.447   7.497  1.00 20.00    +0.049 H 
ATOM     75 H75  LIG A   1      20.856  18.353   8.964  1.00 20.00    +0.160 HD
ATOM     76 H76  LIG A   1      24.172  19.615  10.018  1.00 20.00    +0.064 H 
ATOM     77 H77  LIG A   1      24.434  21.319  11.716  1.00 20.00    +0.063 H 
ATOM     78 H78  LIG A   1      24.591  22.945  13.571  1.00 20.00    +0.066 H 
ATOM     79 H79  LIG A   1      23.636  24.948  15.134  1.00 20.00    +0.066 H 
ATOM     80 H80  LIG A   1      21.929  26.659  15.715  1.00 20.00    +0.063 H 
ATOM     81 H81  LIG A   1      20.150  28.093  16.517  1.00 20.00    +0.064 H 
ATOM     82 H82  LIG A   1      16.588  27.205  16.185  1.00 20.00    +0.160 HD
ATOM     83 H83  LIG A   1      16.648  28.904  17.596  1.00 20.00    +0.049 H 
ATOM     84 H84  LIG A   1      18.349  28.575  17.813  1.00 20.00    +0.049 H 
ATOM     85 H85  LIG A   1      18.190  30.877  17.102  1.00 20.00    +0.030 H 
ATOM     86 H86  LIG A   1      18.811  30.001  15.711  1.00 20.00    +0.030 H 
ATOM     87 H87  LIG A   1      17.144  31.498  14.886  1.00 20.00    +0.043 H 
ATOM     88 H88  LIG A   1      16.472  29.870  14.776  1.00 20.00    +0.043 H 
ATOM     89 H89  LIG A   1      15.959  31.903  16.857  1.00 20.00    +0.122 HD
ATOM     90 H90  LIG A   1      13.814  32.052  16.163  1.00 20.00    +0.043 H 
ATOM     91 H91  LIG A   1      14.784  32.162  14.705  1.00 20.00    +0.043 H 
ATOM     92 H92  LIG A   1      14.322  29.740  14.220  1.00 20.00    +0.028 H 
ATOM     93 H93  LIG A   1      12.860  30.699  14.371  1.00 20.00    +0.028 H 
ATOM     94 H94  LIG A   1      12.514  29.887  16.696  1.00 20.00    +0.028 H 
ATOM     95 H95  LIG A   1      14.022  28.985  16.634  1.00 20.00    +0.028 H 
ATOM     96 H96  LIG A   1      13.142  27.538  14.816  1.00 20.00    +0.043 H 
ATOM     97 H97  LIG A   1      12.190  27.456  16.297  1.00 20.00    +0.043 H 
ATOM     98 H98  LIG A   1      10.654  29.033  15.290  1.00 20.00    +0.118 HD
ATOM     99 H99  LIG A   1      11.492  28.988  13.895  1.00 20.00    +0.118 HD
ATOM    100 H100 LIG A   1      17.233  25.524  14.675  1.00 20.00    +0.064 H 
ATOM    101 H101 LIG A   1      19.021  24.077  13.859  1.00 20.00    +0.063 H 
ATOM    102 H102 LIG A   1      20.156  21.813  11.894  1.00 20.00    +0.063 H 
ATOM    103 H103 LIG A   1      19.898  20.094  10.184  1.00 20.00    +0.064 H 
ENDROOT
TORSDOF 0
                                                                                                          
ENDMDL
MODEL 6
REMARK VINA RESULT:   -11.118      3.608      5.356
REMARK INTER + INTRA:         -11.118
REMARK INTER:                 -11.118
REMARK INTRA:                   0.000
REMARK UNBOUND:                 0.000
ROOT
ATOM      1 C1   LIG A   1      20.669  20.279   7.999  1.00 20.00    -0.048 C 
ATOM      2 C2   LIG A   1      19.686  19.194   8.408  1.00 20.00    +0.015 C 
ATOM      3 N3   LIG A   1      19.185  18.509   7.228  1.00 20.00    -0.357 NA
ATOM      4 C4   LIG A   1      18.220  17.544   7.260  1.00 20.00    +0.195 C 
ATOM      5 N5   LIG A   1      17.567  17.177   8.310  1.00 20.00    -0.269 NA
ATOM      6 N6   LIG A   1      17.987  16.996   6.032  1.00 20.00    -0.298 NA
ATOM      7 C7   LIG A   1      17.209  15.960   5.633  1.00 20.00    +0.192 C 
ATOM      8 N8   LIG A   1      16.531  15.168   6.387  1.00 20.00    -0.269 NA
ATOM      9 N9   LIG A   1      17.179  15.767   4.294  1.00 20.00    -0.370 NA
ATOM     10 N10  LIG A   1      24.532  28.736  13.079  1.00 20.00    -0.330 NA
ATOM     11 C11  LIG A   1      23.676  28.326  11.970  1.00 20.00    -0.008 C 
ATOM     12 C12  LIG A   1      22.831  27.112  12.349  1.00 20.00    -0.040 C 
ATOM     13 C13  LIG A   1      21.927  26.682  11.188  1.00 20.00    -0.039 C 
ATOM     14 C14  LIG A   1      21.017  25.504  11.546  1.00 20.00    -0.005 C 
ATOM     15 N15  LIG A   1      21.803  24.306  11.840  1.00 20.00    -0.317 NA
ATOM     16 C16  LIG A   1      20.943  23.188  12.237  1.00 20.00    -0.003 C 
ATOM     17 C17  LIG A   1      21.802  21.958  12.536  1.00 20.00    -0.023 C 
ATOM     18 C18  LIG A   1      20.984  20.799  13.107  1.00 20.00    +0.016 C 
ATOM     19 N19  LIG A   1      20.011  20.267  12.161  1.00 20.00    -0.385 NA
ATOM     20 C20  LIG A   1      20.356  19.480  11.068  1.00 20.00    +0.034 A 
ATOM     21 C21  LIG A   1      21.596  18.859  10.911  1.00 20.00    -0.038 A 
ATOM     22 C22  LIG A   1      21.857  18.009   9.824  1.00 20.00    -0.049 A 
ATOM     23 C23  LIG A   1      20.869  17.729   8.872  1.00 20.00    +0.017 A 
ATOM     24 C24  LIG A   1      21.139  16.823   7.758  1.00 20.00    +0.134 A 
ATOM     25 C25  LIG A   1      22.259  16.164   7.294  1.00 20.00    -0.015 A 
ATOM     26 C26  LIG A   1      21.849  15.395   6.177  1.00 20.00    -0.015 A 
ATOM     27 C27  LIG A   1      20.498  15.625   6.010  1.00 20.00    +0.134 A 
ATOM     28 C28  LIG A   1      19.483  15.137   5.079  1.00 20.00    +0.017 A 
ATOM     29 C29  LIG A   1      19.760  14.080   4.208  1.00 20.00    -0.049 A 
ATOM     30 C30  LIG A   1      18.784  13.598   3.320  1.00 20.00    -0.038 A 
ATOM     31 C31  LIG A   1      17.514  14.176   3.251  1.00 20.00    +0.034 A 
ATOM     32 N32  LIG A   1      16.482  13.701   2.448  1.00 20.00    -0.385 NA
ATOM     33 C33  LIG A   1      16.697  12.758   1.355  1.00 20.00    +0.016 C 
ATOM     34 C34  LIG A   1      16.544  11.313   1.835  1.00 20.00    -0.023 C 
ATOM     35 C35  LIG A   1      15.108  10.958   2.236  1.00 20.00    -0.003 C 
ATOM     36 N36  LIG A   1      14.231  10.918   1.058  1.00 20.00    -0.317 NA
ATOM     37 C37  LIG A   1      12.827  10.712   1.418  1.00 20.00    -0.005 C 
ATOM     38 C38  LIG A   1      12.141  11.959   1.995  1.00 20.00    -0.039 C 
ATOM     39 C39  LIG A   1      12.165  13.151   1.031  1.00 20.00    -0.040 C 
ATOM     40 C40  LIG A   1      11.552  14.424   1.618  1.00 20.00    -0.008 C 
ATOM     41 N41  LIG A   1      10.133  14.293   1.926  1.00 20.00    -0.330 NA
ATOM     42 C42  LIG A   1      17.235  15.214   4.148  1.00 20.00    -0.038 A 
ATOM     43 C43  LIG A   1      18.200  15.695   5.041  1.00 20.00    -0.049 A 
ATOM     44 O44  LIG A   1      20.072  16.503   6.967  1.00 20.00    -0.456 OA
ATOM     45 C45  LIG A   1      19.616  18.328   9.039  1.00 20.00    -0.049 A 
ATOM     46 C46  LIG A   1      19.365  19.179  10.124  1.00 20.00    -0.038 A 
ATOM     47 H47  LIG A   1      21.525  19.853   7.465  1.00 20.00    +0.025 H 
ATOM     48 H48  LIG A   1      20.193  21.011   7.340  1.00 20.00    +0.025 H 
ATOM     49 H49  LIG A   1      21.045  20.806   8.882  1.00 20.00    +0.025 H 
ATOM     50 H50  LIG A   1      20.183  18.478   9.072  1.00 20.00    +0.049 H 
ATOM     51 H51  LIG A   1      18.856  19.655   8.955  1.00 20.00    +0.049 H 
ATOM     52 H52  LIG A   1      19.921  18.323   6.554  1.00 20.00    +0.163 HD
ATOM     53 H53  LIG A   1      17.871  17.714   9.121  1.00 20.00    +0.191 HD
ATOM     54 H54  LIG A   1      18.480  17.431   5.272  1.00 20.00    +0.173 HD
ATOM     55 H55  LIG A   1      16.691  15.514   7.353  1.00 20.00    +0.191 HD
ATOM     56 H56  LIG A   1      16.544  14.990   4.116  1.00 20.00    +0.159 HD
ATOM     57 H57  LIG A   1      16.833  16.576   3.794  1.00 20.00    +0.159 HD
ATOM     58 H58  LIG A   1      23.955  28.931  13.897  1.00 20.00    +0.118 HD
ATOM     59 H59  LIG A   1      25.132  27.955  13.346  1.00 20.00    +0.118 HD
ATOM     60 H60  LIG A   1      24.304  28.095  11.103  1.00 20.00    +0.043 H 
ATOM     61 H61  LIG A   1      23.030  29.167  11.692  1.00 20.00    +0.043 H 
ATOM     62 H62  LIG A   1      22.212  27.348  13.223  1.00 20.00    +0.028 H 
ATOM     63 H63  LIG A   1      23.491  26.284  12.637  1.00 20.00    +0.028 H 
ATOM     64 H64  LIG A   1      21.294  27.529  10.892  1.00 20.00    +0.028 H 
ATOM     65 H65  LIG A   1      22.540  26.428  10.314  1.00 20.00    +0.028 H 
ATOM     66 H66  LIG A   1      20.343  25.311  10.702  1.00 20.00    +0.043 H 
ATOM     67 H67  LIG A   1      20.401  25.777  12.411  1.00 20.00    +0.043 H 
ATOM     68 H68  LIG A   1      22.341  24.041  11.013  1.00 20.00    +0.122 HD
ATOM     69 H69  LIG A   1      20.229  22.961  11.436  1.00 20.00    +0.043 H 
ATOM     70 H70  LIG A   1      20.375  23.462  13.134  1.00 20.00    +0.043 H 
ATOM     71 H71  LIG A   1      22.332  21.645  11.629  1.00 20.00    +0.030 H 
ATOM     72 H72  LIG A   1      22.568  22.224  13.274  1.00 20.00    +0.030 H 
ATOM     73 H73  LIG A   1      21.649  20.006  13.467  1.00 20.00    +0.049 H 
ATOM     74 H74  LIG A   1      20.436  21.146  13.992  1.00 20.00    +0.049 H 
ATOM     75 H75  LIG A   1      19.212  20.870  11.993  1.00 20.00    +0.160 HD
ATOM     76 H76  LIG A   1      22.395  19.015  11.629  1.00 20.00    +0.064 H 
ATOM     77 H77  LIG A   1      22.842  17.557   9.750  1.00 20.00    +0.063 H 
ATOM     78 H78  LIG A   1      23.254  16.222   7.712  1.00 20.00    +0.066 H 
ATOM     79 H79  LIG A   1      22.467  14.748   5.571  1.00 20.00    +0.066 H 
ATOM     80 H80  LIG A   1      20.733  13.595   4.214  1.00 20.00    +0.063 H 
ATOM     81 H81  LIG A   1      19.051  12.757   2.688  1.00 20.00    +0.064 H 
ATOM     82 H82  LIG A   1      15.790  14.413   2.229  1.00 20.00    +0.160 HD
ATOM     83 H83  LIG A   1      15.961  12.968   0.567  1.00 20.00    +0.049 H 
ATOM     84 H84  LIG A   1      17.677  12.909   0.886  1.00 20.00    +0.049 H 
ATOM     85 H85  LIG A   1      16.880  10.635   1.039  1.00 20.00    +0.030 H 
ATOM     86 H86  LIG A   1      17.197  11.130   2.695  1.00 20.00    +0.030 H 
ATOM     87 H87  LIG A   1      15.109   9.972   2.716  1.00 20.00    +0.043 H 
ATOM     88 H88  LIG A   1      14.752  11.681   2.976  1.00 20.00    +0.043 H 
ATOM     89 H89  LIG A   1      14.531  10.147   0.460  1.00 20.00    +0.122 HD
ATOM     90 H90  LIG A   1      12.289  10.417   0.509  1.00 20.00    +0.043 H 
ATOM     91 H91  LIG A   1      12.727   9.873   2.118  1.00 20.00    +0.043 H 
ATOM     92 H92  LIG A   1      12.599  12.241   2.950  1.00 20.00    +0.028 H 
ATOM     93 H93  LIG A   1      11.101  11.690   2.219  1.00 20.00    +0.028 H 
ATOM     94 H94  LIG A   1      11.643  12.883   0.104  1.00 20.00    +0.028 H 
ATOM     95 H95  LIG A   1      13.200  13.381   0.753  1.00 20.00    +0.028 H 
ATOM     96 H96  LIG A   1      12.092  14.722   2.526  1.00 20.00    +0.043 H 
ATOM     97 H97  LIG A   1      11.673  15.239   0.895  1.00 20.00    +0.043 H 
ATOM     98 H98  LIG A   1       9.636  13.948   1.106  1.00 20.00    +0.118 HD
ATOM     99 H99  LIG A   1       9.998  13.593   2.653  1.00 20.00    +0.118 HD
ATOM    100 H100 LIG A   1      16.243  15.660   4.170  1.00 20.00    +0.064 H 
ATOM    101 H101 LIG A   1      17.932  16.506   5.715  1.00 20.00    +0.063 H 
ATOM    102 H102 LIG A   1      18.811  18.130   8.335  1.00 20.00    +0.063 H 
ATOM    103 H103 LIG A   1      18.367  19.599  10.229  1.00 20.00    +0.064 H 
ENDROOT
TORSDOF 0
                                                                                                          
ENDMDL
MODEL 7
REMARK VINA RESULT:   -11.007      1.838      2.213
REMARK INTER + INTRA:         -11.007
REMARK INTER:                 -11.007
REMARK INTRA:                   0.000
REMARK UNBOUND:                 0.000
ROOT
ATOM      1 C1   LIG A   1      19.575  22.307  10.366  1.00 20.00    -0.048 C 
ATOM      2 C2   LIG A   1      19.860  20.835  10.613  1.00 20.00    +0.015 C 
ATOM      3 N3   LIG A   1      19.203  20.027   9.598  1.00 20.00    -0.357 NA
ATOM      4 C4   LIG A   1      19.197  18.661   9.598  1.00 20.00    +0.195 C 
ATOM      5 N5   LIG A   1      19.685  17.913  10.529  1.00 20.00    -0.269 NA
ATOM      6 N6   LIG A   1      18.589  18.140   8.494  1.00 20.00    -0.298 NA
ATOM      7 C7   LIG A   1      18.455  16.868   8.046  1.00 20.00    +0.192 C 
ATOM      8 N8   LIG A   1      18.971  15.809   8.562  1.00 20.00    -0.269 NA
ATOM      9 N9   LIG A   1      17.700  16.745   6.928  1.00 20.00    -0.370 NA
ATOM     10 N10  LIG A   1      20.409  30.894  16.515  1.00 20.00    -0.330 NA
ATOM     11 C11  LIG A   1      19.449  30.030  15.835  1.00 20.00    -0.008 C 
ATOM     12 C12  LIG A   1      19.862  28.563  15.939  1.00 20.00    -0.040 C 
ATOM     13 C13  LIG A   1      18.853  27.653  15.230  1.00 20.00    -0.039 C 
ATOM     14 C14  LIG A   1      19.197  26.166  15.362  1.00 20.00    -0.005 C 
ATOM     15 N15  LIG A   1      20.467  25.862  14.704  1.00 20.00    -0.317 NA
ATOM     16 C16  LIG A   1      20.831  24.453  14.873  1.00 20.00    -0.003 C 
ATOM     17 C17  LIG A   1      22.163  24.177  14.173  1.00 20.00    -0.023 C 
ATOM     18 C18  LIG A   1      22.682  22.764  14.440  1.00 20.00    +0.016 C 
ATOM     19 N19  LIG A   1      21.825  21.726  13.881  1.00 20.00    -0.385 NA
ATOM     20 C20  LIG A   1      21.754  21.439  12.523  1.00 20.00    +0.034 A 
ATOM     21 C21  LIG A   1      22.689  21.876  11.581  1.00 20.00    -0.038 A 
ATOM     22 C22  LIG A   1      22.608  21.485  10.235  1.00 20.00    -0.049 A 
ATOM     23 C23  LIG A   1      21.603  20.616   9.793  1.00 20.00    +0.017 A 
ATOM     24 C24  LIG A   1      21.542  20.192   8.397  1.00 20.00    +0.134 A 
ATOM     25 C25  LIG A   1      22.235  20.526   7.251  1.00 20.00    -0.015 A 
ATOM     26 C26  LIG A   1      21.715  19.720   6.208  1.00 20.00    -0.015 A 
ATOM     27 C27  LIG A   1      20.725  18.937   6.766  1.00 20.00    +0.134 A 
ATOM     28 C28  LIG A   1      19.830  17.900   6.257  1.00 20.00    +0.017 A 
ATOM     29 C29  LIG A   1      20.006  17.367   4.977  1.00 20.00    -0.049 A 
ATOM     30 C30  LIG A   1      19.156  16.361   4.488  1.00 20.00    -0.038 A 
ATOM     31 C31  LIG A   1      18.087  15.879   5.245  1.00 20.00    +0.034 A 
ATOM     32 N32  LIG A   1      17.256  14.837   4.850  1.00 20.00    -0.385 NA
ATOM     33 C33  LIG A   1      17.195  14.347   3.476  1.00 20.00    +0.016 C 
ATOM     34 C34  LIG A   1      18.186  13.202   3.255  1.00 20.00    -0.023 C 
ATOM     35 C35  LIG A   1      17.819  11.928   4.024  1.00 20.00    -0.003 C 
ATOM     36 N36  LIG A   1      16.606  11.314   3.469  1.00 20.00    -0.317 NA
ATOM     37 C37  LIG A   1      16.151  10.169   4.261  1.00 20.00    -0.005 C 
ATOM     38 C38  LIG A   1      15.458  10.555   5.575  1.00 20.00    -0.039 C 
ATOM     39 C39  LIG A   1      14.227  11.444   5.360  1.00 20.00    -0.040 C 
ATOM     40 C40  LIG A   1      13.567  11.900   6.664  1.00 20.00    -0.008 C 
ATOM     41 N41  LIG A   1      13.030  10.799   7.455  1.00 20.00    -0.330 NA
ATOM     42 C42  LIG A   1      17.936  16.395   6.539  1.00 20.00    -0.038 A 
ATOM     43 C43  LIG A   1      18.784  17.393   7.036  1.00 20.00    -0.049 A 
ATOM     44 O44  LIG A   1      20.615  19.234   8.095  1.00 20.00    -0.456 OA
ATOM     45 C45  LIG A   1      20.681  20.154  10.738  1.00 20.00    -0.049 A 
ATOM     46 C46  LIG A   1      20.765  20.552  12.079  1.00 20.00    -0.038 A 
ATOM     47 H47  LIG A   1      19.951  22.622   9.387  1.00 20.00    +0.025 H 
ATOM     48 H48  LIG A   1      18.499  22.508  10.394  1.00 20.00    +0.025 H 
ATOM     49 H49  LIG A   1      20.059  22.922  11.131  1.00 20.00    +0.025 H 
ATOM     50 H50  LIG A   1      20.940  20.659  10.587  1.00 20.00    +0.049 H 
ATOM     51 H51  LIG A   1      19.489  20.563  11.607  1.00 20.00    +0.049 H 
ATOM     52 H52  LIG A   1      19.295  20.431   8.671  1.00 20.00    +0.163 HD
ATOM     53 H53  LIG A   1      20.078  18.488  11.274  1.00 20.00    +0.191 HD
ATOM     54 H54  LIG A   1      18.155  18.816   7.888  1.00 20.00    +0.173 HD
ATOM     55 H55  LIG A   1      19.482  16.142   9.403  1.00 20.00    +0.191 HD
ATOM     56 H56  LIG A   1      17.647  15.751   6.709  1.00 20.00    +0.159 HD
ATOM     57 H57  LIG A   1      16.757  17.088   7.059  1.00 20.00    +0.159 HD
ATOM     58 H58  LIG A   1      20.493  30.605  17.489  1.00 20.00    +0.118 HD
ATOM     59 H59  LIG A   1      21.333  30.756  16.106  1.00 20.00    +0.118 HD
ATOM     60 H60  LIG A   1      19.382  30.331  14.784  1.00 20.00    +0.043 H 
ATOM     61 H61  LIG A   1      18.459  30.179  16.281  1.00 20.00    +0.043 H 
ATOM     62 H62  LIG A   1      19.935  28.272  16.994  1.00 20.00    +0.028 H 
ATOM     63 H63  LIG A   1      20.859  28.433  15.499  1.00 20.00    +0.028 H 
ATOM     64 H64  LIG A   1      17.857  27.815  15.660  1.00 20.00    +0.028 H 
ATOM     65 H65  LIG A   1      18.786  27.926  14.169  1.00 20.00    +0.028 H 
ATOM     66 H66  LIG A   1      18.391  25.577  14.910  1.00 20.00    +0.043 H 
ATOM     67 H67  LIG A   1      19.247  25.904  16.426  1.00 20.00    +0.043 H 
ATOM     68 H68  LIG A   1      20.393  26.075  13.708  1.00 20.00    +0.122 HD
ATOM     69 H69  LIG A   1      20.048  23.810  14.455  1.00 20.00    +0.043 H 
ATOM     70 H70  LIG A   1      20.928  24.224  15.941  1.00 20.00    +0.043 H 
ATOM     71 H71  LIG A   1      22.060  24.352  13.096  1.00 20.00    +0.030 H 
ATOM     72 H72  LIG A   1      22.916  24.886  14.537  1.00 20.00    +0.030 H 
ATOM     73 H73  LIG A   1      23.709  22.661  14.071  1.00 20.00    +0.049 H 
ATOM     74 H74  LIG A   1      22.743  22.601  15.523  1.00 20.00    +0.049 H 
ATOM     75 H75  LIG A   1      20.946  21.596  14.371  1.00 20.00    +0.160 HD
ATOM     76 H76  LIG A   1      23.506  22.531  11.866  1.00 20.00    +0.064 H 
ATOM     77 H77  LIG A   1      23.360  21.860   9.545  1.00 20.00    +0.063 H 
ATOM     78 H78  LIG A   1      23.028  21.256   7.172  1.00 20.00    +0.066 H 
ATOM     79 H79  LIG A   1      22.030  19.713   5.174  1.00 20.00    +0.066 H 
ATOM     80 H80  LIG A   1      20.818  17.709   4.340  1.00 20.00    +0.063 H 
ATOM     81 H81  LIG A   1      19.361  15.970   3.496  1.00 20.00    +0.064 H 
ATOM     82 H82  LIG A   1      16.346  14.860   5.304  1.00 20.00    +0.160 HD
ATOM     83 H83  LIG A   1      16.174  13.999   3.277  1.00 20.00    +0.049 H 
ATOM     84 H84  LIG A   1      17.373  15.157   2.758  1.00 20.00    +0.049 H 
ATOM     85 H85  LIG A   1      18.239  12.978   2.180  1.00 20.00    +0.030 H 
ATOM     86 H86  LIG A   1      19.193  13.509   3.558  1.00 20.00    +0.030 H 
ATOM     87 H87  LIG A   1      18.650  11.217   3.947  1.00 20.00    +0.043 H 
ATOM     88 H88  LIG A   1      17.695  12.171   5.084  1.00 20.00    +0.043 H 
ATOM     89 H89  LIG A   1      16.813  10.993   2.522  1.00 20.00    +0.122 HD
ATOM     90 H90  LIG A   1      15.435   9.605   3.651  1.00 20.00    +0.043 H 
ATOM     91 H91  LIG A   1      16.985   9.485   4.464  1.00 20.00    +0.043 H 
ATOM     92 H92  LIG A   1      16.165  11.053   6.249  1.00 20.00    +0.028 H 
ATOM     93 H93  LIG A   1      15.157   9.627   6.075  1.00 20.00    +0.028 H 
ATOM     94 H94  LIG A   1      13.494  10.910   4.742  1.00 20.00    +0.028 H 
ATOM     95 H95  LIG A   1      14.513  12.343   4.803  1.00 20.00    +0.028 H 
ATOM     96 H96  LIG A   1      14.282  12.467   7.273  1.00 20.00    +0.043 H 
ATOM     97 H97  LIG A   1      12.744  12.582   6.421  1.00 20.00    +0.043 H 
ATOM     98 H98  LIG A   1      12.420  10.226   6.875  1.00 20.00    +0.118 HD
ATOM     99 H99  LIG A   1      13.787  10.189   7.759  1.00 20.00    +0.118 HD
ATOM    100 H100 LIG A   1      17.152  16.013   7.188  1.00 20.00    +0.064 H 
ATOM    101 H101 LIG A   1      18.621  17.762   8.047  1.00 20.00    +0.063 H 
ATOM    102 H102 LIG A   1      19.892  19.465  10.447  1.00 20.00    +0.063 H 
ATOM    103 H103 LIG A   1      20.043  20.145  12.783  1.00 20.00    +0.064 H 
ENDROOT
TORSDOF 0
                                                                                                          
ENDMDL
MODEL 8
REMARK VINA RESULT:   -10.978      2.161      2.713
REMARK INTER + INTRA:         -10.978
REMARK INTER:                 -10.978
REMARK INTRA:                   0.000
REMARK UNBOUND:                 0.000
ROOT
ATOM      1 C1   LIG A   1      18.960  24.306  12.073  1.00 20.00    -0.048 C 
ATOM      2 C2   LIG A   1      19.878  23.101  12.187  1.00 20.00    +0.015 C 
ATOM      3 N3   LIG A   1      19.392  22.027  11.337  1.00 20.00    -0.357 NA
ATOM      4 C4   LIG A   1      19.952  20.782  11.288  1.00 20.00    +0.195 C 
ATOM      5 N5   LIG A   1      20.914  20.367  12.041  1.00 20.00    -0.269 NA
ATOM      6 N6   LIG A   1      19.367  19.982  10.350  1.00 20.00    -0.298 NA
ATOM      7 C7   LIG A   1      19.669  18.738   9.903  1.00 20.00    +0.192 C 
ATOM      8 N8   LIG A   1      20.684  18.022  10.236  1.00 20.00    -0.269 NA
ATOM      9 N9   LIG A   1      18.788  18.239   9.003  1.00 20.00    -0.370 NA
ATOM     10 N10  LIG A   1      17.618  32.890  18.137  1.00 20.00    -0.330 NA
ATOM     11 C11  LIG A   1      16.970  31.663  17.684  1.00 20.00    -0.008 C 
ATOM     12 C12  LIG A   1      17.964  30.505  17.629  1.00 20.00    -0.040 C 
ATOM     13 C13  LIG A   1      17.284  29.214  17.158  1.00 20.00    -0.039 C 
ATOM     14 C14  LIG A   1      18.233  28.012  17.147  1.00 20.00    -0.005 C 
ATOM     15 N15  LIG A   1      19.316  28.209  16.183  1.00 20.00    -0.317 NA
ATOM     16 C16  LIG A   1      20.259  27.088  16.205  1.00 20.00    -0.003 C 
ATOM     17 C17  LIG A   1      21.374  27.333  15.187  1.00 20.00    -0.023 C 
ATOM     18 C18  LIG A   1      22.479  26.279  15.265  1.00 20.00    +0.016 C 
ATOM     19 N19  LIG A   1      22.021  24.946  14.898  1.00 20.00    -0.385 NA
ATOM     20 C20  LIG A   1      21.751  24.560  13.590  1.00 20.00    +0.034 A 
ATOM     21 C21  LIG A   1      22.165  25.275  12.463  1.00 20.00    -0.038 A 
ATOM     22 C22  LIG A   1      21.932  24.792  11.165  1.00 20.00    -0.049 A 
ATOM     23 C23  LIG A   1      21.303  23.559  10.953  1.00 20.00    +0.017 A 
ATOM     24 C24  LIG A   1      21.089  23.050   9.601  1.00 20.00    +0.134 A 
ATOM     25 C25  LIG A   1      21.284  23.557   8.332  1.00 20.00    -0.015 A 
ATOM     26 C26  LIG A   1      20.910  22.539   7.421  1.00 20.00    -0.015 A 
ATOM     27 C27  LIG A   1      20.499  21.460   8.178  1.00 20.00    +0.134 A 
ATOM     28 C28  LIG A   1      20.019  20.115   7.869  1.00 20.00    +0.017 A 
ATOM     29 C29  LIG A   1      20.086  19.613   6.566  1.00 20.00    -0.049 A 
ATOM     30 C30  LIG A   1      19.639  18.316   6.265  1.00 20.00    -0.038 A 
ATOM     31 C31  LIG A   1      19.081  17.492   7.246  1.00 20.00    +0.034 A 
ATOM     32 N32  LIG A   1      18.688  16.176   7.030  1.00 20.00    -0.385 NA
ATOM     33 C33  LIG A   1      18.507  15.610   5.697  1.00 20.00    +0.016 C 
ATOM     34 C34  LIG A   1      19.798  14.958   5.195  1.00 20.00    -0.023 C 
ATOM     35 C35  LIG A   1      20.187  13.703   5.983  1.00 20.00    -0.003 C 
ATOM     36 N36  LIG A   1      19.243  12.609   5.723  1.00 20.00    -0.317 NA
ATOM     37 C37  LIG A   1      19.507  11.436   6.560  1.00 20.00    -0.005 C 
ATOM     38 C38  LIG A   1      19.054  11.596   8.019  1.00 20.00    -0.039 C 
ATOM     39 C39  LIG A   1      17.554  11.885   8.148  1.00 20.00    -0.040 C 
ATOM     40 C40  LIG A   1      17.099  12.122   9.590  1.00 20.00    -0.008 C 
ATOM     41 N41  LIG A   1      17.273  10.956  10.449  1.00 20.00    -0.330 NA
ATOM     42 C42  LIG A   1      19.047  17.991   8.554  1.00 20.00    -0.038 A 
ATOM     43 C43  LIG A   1      19.498  19.280   8.863  1.00 20.00    -0.049 A 
ATOM     44 O44  LIG A   1      20.599  21.778   9.503  1.00 20.00    -0.456 OA
ATOM     45 C45  LIG A   1      20.912  22.827  12.079  1.00 20.00    -0.049 A 
ATOM     46 C46  LIG A   1      21.142  23.317  13.372  1.00 20.00    -0.038 A 
ATOM     47 H47  LIG A   1      18.925  24.678  11.044  1.00 20.00    +0.025 H 
ATOM     48 H48  LIG A   1      17.939  24.052  12.374  1.00 20.00    +0.025 H 
ATOM     49 H49  LIG A   1      19.314  25.118  12.717  1.00 20.00    +0.025 H 
ATOM     50 H50  LIG A   1      20.894  23.382  11.888  1.00 20.00    +0.049 H 
ATOM     51 H51  LIG A   1      19.904  22.771  13.231  1.00 20.00    +0.049 H 
ATOM     52 H52  LIG A   1      19.083  22.367  10.432  1.00 20.00    +0.163 HD
ATOM     53 H53  LIG A   1      21.200  21.102  12.686  1.00 20.00    +0.191 HD
ATOM     54 H54  LIG A   1      18.562  20.377   9.896  1.00 20.00    +0.173 HD
ATOM     55 H55  LIG A   1      21.197  18.593  10.935  1.00 20.00    +0.191 HD
ATOM     56 H56  LIG A   1      19.100  17.298   8.767  1.00 20.00    +0.159 HD
ATOM     57 H57  LIG A   1      17.849  18.175   9.376  1.00 20.00    +0.159 HD
ATOM     58 H58  LIG A   1      18.046  32.729  19.049  1.00 20.00    +0.118 HD
ATOM     59 H59  LIG A   1      18.389  33.114  17.508  1.00 20.00    +0.118 HD
ATOM     60 H60  LIG A   1      16.533  31.836  16.694  1.00 20.00    +0.043 H 
ATOM     61 H61  LIG A   1      16.146  31.425  18.367  1.00 20.00    +0.043 H 
ATOM     62 H62  LIG A   1      18.402  30.344  18.622  1.00 20.00    +0.028 H 
ATOM     63 H63  LIG A   1      18.787  30.764  16.951  1.00 20.00    +0.028 H 
ATOM     64 H64  LIG A   1      16.445  28.984  17.828  1.00 20.00    +0.028 H 
ATOM     65 H65  LIG A   1      16.857  29.362  16.158  1.00 20.00    +0.028 H 
ATOM     66 H66  LIG A   1      17.659  27.114  16.886  1.00 20.00    +0.043 H 
ATOM     67 H67  LIG A   1      18.641  27.868  18.154  1.00 20.00    +0.043 H 
ATOM     68 H68  LIG A   1      18.923  28.303  15.245  1.00 20.00    +0.122 HD
ATOM     69 H69  LIG A   1      19.736  26.154  15.971  1.00 20.00    +0.043 H 
ATOM     70 H70  LIG A   1      20.695  26.994  17.206  1.00 20.00    +0.043 H 
ATOM     71 H71  LIG A   1      20.952  27.375  14.176  1.00 20.00    +0.030 H 
ATOM     72 H72  LIG A   1      21.830  28.312  15.380  1.00 20.00    +0.030 H 
ATOM     73 H73  LIG A   1      23.334  26.580  14.650  1.00 20.00    +0.049 H 
ATOM     74 H74  LIG A   1      22.860  26.232  16.293  1.00 20.00    +0.049 H 
ATOM     75 H75  LIG A   1      21.421  24.501  15.585  1.00 20.00    +0.160 HD
ATOM     76 H76  LIG A   1      22.680  26.225  12.560  1.00 20.00    +0.064 H 
ATOM     77 H77  LIG A   1      22.271  25.392  10.325  1.00 20.00    +0.063 H 
ATOM     78 H78  LIG A   1      21.659  24.541   8.087  1.00 20.00    +0.066 H 
ATOM     79 H79  LIG A   1      20.941  22.589   6.342  1.00 20.00    +0.066 H 
ATOM     80 H80  LIG A   1      20.506  20.211   5.761  1.00 20.00    +0.063 H 
ATOM     81 H81  LIG A   1      19.742  17.974   5.240  1.00 20.00    +0.064 H 
ATOM     82 H82  LIG A   1      17.988  15.857   7.696  1.00 20.00    +0.160 HD
ATOM     83 H83  LIG A   1      17.706  14.861   5.745  1.00 20.00    +0.049 H 
ATOM     84 H84  LIG A   1      18.155  16.369   4.988  1.00 20.00    +0.049 H 
ATOM     85 H85  LIG A   1      19.679  14.701   4.133  1.00 20.00    +0.030 H 
ATOM     86 H86  LIG A   1      20.627  15.671   5.251  1.00 20.00    +0.030 H 
ATOM     87 H87  LIG A   1      21.192  13.391   5.677  1.00 20.00    +0.043 H 
ATOM     88 H88  LIG A   1      20.232  13.948   7.049  1.00 20.00    +0.043 H 
ATOM     89 H89  LIG A   1      19.329  12.336   4.743  1.00 20.00    +0.122 HD
ATOM     90 H90  LIG A   1      18.965  10.587   6.127  1.00 20.00    +0.043 H 
ATOM     91 H91  LIG A   1      20.571  11.170   6.526  1.00 20.00    +0.043 H 
ATOM     92 H92  LIG A   1      19.631  12.385   8.514  1.00 20.00    +0.028 H 
ATOM     93 H93  LIG A   1      19.294  10.663   8.543  1.00 20.00    +0.028 H 
ATOM     94 H94  LIG A   1      16.983  11.057   7.712  1.00 20.00    +0.028 H 
ATOM     95 H95  LIG A   1      17.299  12.781   7.571  1.00 20.00    +0.028 H 
ATOM     96 H96  LIG A   1      17.639  12.973  10.024  1.00 20.00    +0.043 H 
ATOM     97 H97  LIG A   1      16.036  12.388   9.585  1.00 20.00    +0.043 H 
ATOM     98 H98  LIG A   1      16.835  10.144  10.017  1.00 20.00    +0.118 HD
ATOM     99 H99  LIG A   1      18.263  10.731  10.533  1.00 20.00    +0.118 HD
ATOM    100 H100 LIG A   1      18.672  17.367   9.363  1.00 20.00    +0.064 H 
ATOM    101 H101 LIG A   1      19.445  19.620   9.896  1.00 20.00    +0.063 H 
ATOM    102 H102 LIG A   1      20.433  21.857  11.968  1.00 20.00    +0.063 H 
ATOM    103 H103 LIG A   1      20.846  22.701  14.218  1.00 20.00    +0.064 H 
ENDROOT
TORSDOF 0
                                                                                                          
ENDMDL
MODEL 9
REMARK VINA RESULT:   -10.650      5.681      9.609
REMARK INTER + INTRA:         -10.650
REMARK INTER:                 -10.650
REMARK INTRA:                   0.000
REMARK UNBOUND:                 0.000
ROOT
ATOM      1 C1   LIG A   1      19.382  17.157   4.730  1.00 20.00    -0.048 C 
ATOM      2 C2   LIG A   1      18.067  16.571   5.217  1.00 20.00    +0.015 C 
ATOM      3 N3   LIG A   1      17.390  15.895   4.122  1.00 20.00    -0.357 NA
ATOM      4 C4   LIG A   1      16.145  15.344   4.222  1.00 20.00    +0.195 C 
ATOM      5 N5   LIG A   1      15.374  15.424   5.254  1.00 20.00    -0.269 NA
ATOM      6 N6   LIG A   1      15.767  14.694   3.083  1.00 20.00    -0.298 NA
ATOM      7 C7   LIG A   1      14.684  13.934   2.788  1.00 20.00    +0.192 C 
ATOM      8 N8   LIG A   1      13.748  13.576   3.595  1.00 20.00    -0.269 NA
ATOM      9 N9   LIG A   1      14.626  13.520   1.500  1.00 20.00    -0.370 NA
ATOM     10 N10  LIG A   1      25.847  24.549   8.705  1.00 20.00    -0.330 NA
ATOM     11 C11  LIG A   1      24.933  24.262   7.603  1.00 20.00    -0.008 C 
ATOM     12 C12  LIG A   1      23.702  23.505   8.095  1.00 20.00    -0.040 C 
ATOM     13 C13  LIG A   1      22.738  23.207   6.941  1.00 20.00    -0.039 C 
ATOM     14 C14  LIG A   1      21.459  22.500   7.400  1.00 20.00    -0.005 C 
ATOM     15 N15  LIG A   1      21.760  21.181   7.955  1.00 20.00    -0.317 NA
ATOM     16 C16  LIG A   1      20.549  20.520   8.447  1.00 20.00    -0.003 C 
ATOM     17 C17  LIG A   1      20.906  19.147   9.019  1.00 20.00    -0.023 C 
ATOM     18 C18  LIG A   1      19.714  18.466   9.693  1.00 20.00    +0.016 C 
ATOM     19 N19  LIG A   1      18.644  18.137   8.760  1.00 20.00    -0.385 NA
ATOM     20 C20  LIG A   1      18.718  17.093   7.846  1.00 20.00    +0.034 A 
ATOM     21 C21  LIG A   1      19.662  16.066   7.906  1.00 20.00    -0.038 A 
ATOM     22 C22  LIG A   1      19.635  14.994   6.999  1.00 20.00    -0.049 A 
ATOM     23 C23  LIG A   1      18.640  14.900   6.018  1.00 20.00    +0.017 A 
ATOM     24 C24  LIG A   1      18.602  13.768   5.096  1.00 20.00    +0.134 A 
ATOM     25 C25  LIG A   1      19.429  12.691   4.849  1.00 20.00    -0.015 A 
ATOM     26 C26  LIG A   1      18.805  11.919   3.838  1.00 20.00    -0.015 A 
ATOM     27 C27  LIG A   1      17.628  12.564   3.513  1.00 20.00    +0.134 A 
ATOM     28 C28  LIG A   1      16.534  12.293   2.585  1.00 20.00    +0.017 A 
ATOM     29 C29  LIG A   1      16.442  11.063   1.926  1.00 20.00    -0.049 A 
ATOM     30 C30  LIG A   1      15.384  10.792   1.042  1.00 20.00    -0.038 A 
ATOM     31 C31  LIG A   1      14.405  11.748   0.764  1.00 20.00    +0.034 A 
ATOM     32 N32  LIG A   1      13.295  11.519  -0.042  1.00 20.00    -0.385 NA
ATOM     33 C33  LIG A   1      13.192  10.375  -0.944  1.00 20.00    +0.016 C 
ATOM     34 C34  LIG A   1      12.523   9.185  -0.252  1.00 20.00    -0.023 C 
ATOM     35 C35  LIG A   1      11.044   9.426   0.067  1.00 20.00    -0.003 C 
ATOM     36 N36  LIG A   1      10.244   9.474  -1.163  1.00 20.00    -0.317 NA
ATOM     37 C37  LIG A   1       8.848   9.833  -0.905  1.00 20.00    -0.005 C 
ATOM     38 C38  LIG A   1       8.633  11.324  -0.603  1.00 20.00    -0.039 C 
ATOM     39 C39  LIG A   1       9.106  12.236  -1.741  1.00 20.00    -0.040 C 
ATOM     40 C40  LIG A   1       8.968  13.727  -1.426  1.00 20.00    -0.008 C 
ATOM     41 N41  LIG A   1       7.586  14.151  -1.233  1.00 20.00    -0.330 NA
ATOM     42 C42  LIG A   1      14.486  12.965   1.452  1.00 20.00    -0.038 A 
ATOM     43 C43  LIG A   1      15.533  13.240   2.340  1.00 20.00    -0.049 A 
ATOM     44 O44  LIG A   1      17.514  13.695   4.272  1.00 20.00    -0.456 OA
ATOM     45 C45  LIG A   1      17.677  15.913   5.971  1.00 20.00    -0.049 A 
ATOM     46 C46  LIG A   1      17.712  16.983   6.876  1.00 20.00    -0.038 A 
ATOM     47 H47  LIG A   1      20.046  16.372   4.353  1.00 20.00    +0.025 H 
ATOM     48 H48  LIG A   1      19.216  17.874   3.919  1.00 20.00    +0.025 H 
ATOM     49 H49  LIG A   1      19.895  17.675   5.546  1.00 20.00    +0.025 H 
ATOM     50 H50  LIG A   1      18.258  15.863   6.031  1.00 20.00    +0.049 H 
ATOM     51 H51  LIG A   1      17.439  17.381   5.604  1.00 20.00    +0.049 H 
ATOM     52 H52  LIG A   1      18.031  15.347   3.558  1.00 20.00    +0.163 HD
ATOM     53 H53  LIG A   1      15.826  15.963   5.991  1.00 20.00    +0.191 HD
ATOM     54 H54  LIG A   1      16.405  14.785   2.311  1.00 20.00    +0.173 HD
ATOM     55 H55  LIG A   1      13.993  14.018   4.502  1.00 20.00    +0.191 HD
ATOM     56 H56  LIG A   1      13.763  12.991   1.393  1.00 20.00    +0.159 HD
ATOM     57 H57  LIG A   1      14.604  14.292   0.846  1.00 20.00    +0.159 HD
ATOM     58 H58  LIG A   1      25.353  25.078   9.424  1.00 20.00    +0.118 HD
ATOM     59 H59  LIG A   1      26.123  23.673   9.148  1.00 20.00    +0.118 HD
ATOM     60 H60  LIG A   1      25.463  23.675   6.846  1.00 20.00    +0.043 H 
ATOM     61 H61  LIG A   1      24.636  25.208   7.135  1.00 20.00    +0.043 H 
ATOM     62 H62  LIG A   1      23.182  24.096   8.859  1.00 20.00    +0.028 H 
ATOM     63 H63  LIG A   1      24.017  22.568   8.572  1.00 20.00    +0.028 H 
ATOM     64 H64  LIG A   1      22.455  24.149   6.455  1.00 20.00    +0.028 H 
ATOM     65 H65  LIG A   1      23.246  22.601   6.179  1.00 20.00    +0.028 H 
ATOM     66 H66  LIG A   1      20.785  22.400   6.541  1.00 20.00    +0.043 H 
ATOM     67 H67  LIG A   1      20.956  23.123   8.150  1.00 20.00    +0.043 H 
ATOM     68 H68  LIG A   1      22.193  20.600   7.235  1.00 20.00    +0.122 HD
ATOM     69 H69  LIG A   1      19.824  20.410   7.632  1.00 20.00    +0.043 H 
ATOM     70 H70  LIG A   1      20.089  21.133   9.232  1.00 20.00    +0.043 H 
ATOM     71 H71  LIG A   1      21.317  18.510   8.227  1.00 20.00    +0.030 H 
ATOM     72 H72  LIG A   1      21.696  19.264   9.771  1.00 20.00    +0.030 H 
ATOM     73 H73  LIG A   1      20.045  17.574  10.236  1.00 20.00    +0.049 H 
ATOM     74 H74  LIG A   1      19.300  19.137  10.456  1.00 20.00    +0.049 H 
ATOM     75 H75  LIG A   1      18.116  18.936   8.425  1.00 20.00    +0.160 HD
ATOM     76 H76  LIG A   1      20.443  16.067   8.659  1.00 20.00    +0.064 H 
ATOM     77 H77  LIG A   1      20.397  14.225   7.090  1.00 20.00    +0.063 H 
ATOM     78 H78  LIG A   1      20.367  12.479   5.341  1.00 20.00    +0.066 H 
ATOM     79 H79  LIG A   1      19.170  10.999   3.405  1.00 20.00    +0.066 H 
ATOM     80 H80  LIG A   1      17.179  10.284   2.100  1.00 20.00    +0.063 H 
ATOM     81 H81  LIG A   1      15.354   9.810   0.582  1.00 20.00    +0.064 H 
ATOM     82 H82  LIG A   1      12.907  12.372  -0.436  1.00 20.00    +0.160 HD
ATOM     83 H83  LIG A   1      12.602  10.677  -1.819  1.00 20.00    +0.049 H 
ATOM     84 H84  LIG A   1      14.175  10.091  -1.339  1.00 20.00    +0.049 H 
ATOM     85 H85  LIG A   1      12.620   8.299  -0.894  1.00 20.00    +0.030 H 
ATOM     86 H86  LIG A   1      13.044   8.950   0.682  1.00 20.00    +0.030 H 
ATOM     87 H87  LIG A   1      10.682   8.606   0.699  1.00 20.00    +0.043 H 
ATOM     88 H88  LIG A   1      10.946  10.350   0.645  1.00 20.00    +0.043 H 
ATOM     89 H89  LIG A   1      10.268   8.551  -1.598  1.00 20.00    +0.122 HD
ATOM     90 H90  LIG A   1       8.267   9.580  -1.800  1.00 20.00    +0.043 H 
ATOM     91 H91  LIG A   1       8.437   9.224  -0.090  1.00 20.00    +0.043 H 
ATOM     92 H92  LIG A   1       9.134  11.601   0.331  1.00 20.00    +0.028 H 
ATOM     93 H93  LIG A   1       7.560  11.475  -0.435  1.00 20.00    +0.028 H 
ATOM     94 H94  LIG A   1       8.550  11.998  -2.656  1.00 20.00    +0.028 H 
ATOM     95 H95  LIG A   1      10.163  12.041  -1.956  1.00 20.00    +0.028 H 
ATOM     96 H96  LIG A   1       9.552  13.983  -0.533  1.00 20.00    +0.043 H 
ATOM     97 H97  LIG A   1       9.391  14.303  -2.258  1.00 20.00    +0.043 H 
ATOM     98 H98  LIG A   1       7.023  13.854  -2.029  1.00 20.00    +0.118 HD
ATOM     99 H99  LIG A   1       7.192  13.686  -0.418  1.00 20.00    +0.118 HD
ATOM    100 H100 LIG A   1      13.717  13.721   1.310  1.00 20.00    +0.064 H 
ATOM    101 H101 LIG A   1      15.551  14.204   2.846  1.00 20.00    +0.063 H 
ATOM    102 H102 LIG A   1      16.874  15.878   5.238  1.00 20.00    +0.063 H 
ATOM    103 H103 LIG A   1      16.926  17.732   6.820  1.00 20.00    +0.064 H 
ENDROOT
TORSDOF 0
                                                                                                          
ENDMDL
