ROOT
ATOM      1 C1   LIG A   1      -0.624   0.751   2.581  1.00 20.00    -0.060 C 
ATOM      2 C2   LIG A   1       0.053   0.729   1.202  1.00 20.00    -0.016 C 
ATOM      3 C3   LIG A   1      -0.833   1.407   0.123  1.00 20.00    -0.022 C 
ATOM      4 C4   LIG A   1      -2.042   0.568  -0.281  1.00 20.00    -0.029 A 
ATOM      5 C5   LIG A   1      -1.876  -0.522  -1.192  1.00 20.00    +0.004 A 
ATOM      6 C6   LIG A   1      -0.650  -0.885  -1.813  1.00 20.00    -0.053 A 
ATOM      7 C7   LIG A   1      -0.560  -1.970  -2.686  1.00 20.00    -0.062 A 
ATOM      8 C8   LIG A   1      -1.693  -2.717  -2.961  1.00 20.00    -0.060 A 
ATOM      9 C9   LIG A   1      -2.905  -2.367  -2.366  1.00 20.00    -0.036 A 
ATOM     10 C10  LIG A   1      -3.017  -1.290  -1.496  1.00 20.00    +0.071 A 
ATOM     11 N11  LIG A   1      -4.227  -1.037  -0.986  1.00 20.00    -0.248 NA
ATOM     12 C12  LIG A   1      -4.391  -0.008  -0.147  1.00 20.00    +0.071 A 
ATOM     13 C13  LIG A   1      -5.671   0.210   0.344  1.00 20.00    -0.036 A 
ATOM     14 C14  LIG A   1      -5.960   1.250   1.228  1.00 20.00    -0.060 A 
ATOM     15 C15  LIG A   1      -4.943   2.095   1.636  1.00 20.00    -0.062 A 
ATOM     16 C16  LIG A   1      -3.649   1.894   1.155  1.00 20.00    -0.053 A 
ATOM     17 C17  LIG A   1      -3.338   0.841   0.253  1.00 20.00    +0.004 A 
ATOM     18 C18  LIG A   1       1.470   1.354   1.299  1.00 20.00    +0.087 C 
ATOM     19 N19  LIG A   1       1.429   2.817   1.525  1.00 20.00    -0.320 NA
ATOM     20 C20  LIG A   1       2.302   1.052   0.028  1.00 20.00    +0.240 C 
ATOM     21 O21  LIG A   1       2.359   1.871  -0.895  1.00 20.00    -0.273 OA
ATOM     22 N22  LIG A   1       2.957  -0.154  -0.051  1.00 20.00    -0.328 NA
ATOM     23 C23  LIG A   1       2.960  -1.246   0.905  1.00 20.00    +0.022 C 
ATOM     24 C24  LIG A   1       3.146  -2.469   0.027  1.00 20.00    -0.033 C 
ATOM     25 C25  LIG A   1       4.098  -1.976  -1.058  1.00 20.00    -0.020 C 
ATOM     26 C26  LIG A   1       3.734  -0.496  -1.249  1.00 20.00    +0.129 C 
ATOM     27 C27  LIG A   1       5.024   0.310  -1.427  1.00 20.00    +0.326 C 
ATOM     28 O28  LIG A   1       5.757   0.260  -2.405  1.00 20.00    -0.250 OA
ATOM     29 O29  LIG A   1       5.383   1.052  -0.358  1.00 20.00    -0.480 OA
ATOM     30 C30  LIG A   1      -4.689  -0.903   1.439  1.00 20.00    -0.056 C 
ATOM     31 C31  LIG A   1      -4.729  -0.711  -0.070  1.00 20.00    -0.002 C 
ATOM     32 S32  LIG A   1      -3.083  -0.935  -0.803  1.00 20.00    -0.087 SA
ATOM     33 C33  LIG A   1      -2.360   0.635  -0.448  1.00 20.00    +0.205 C 
ATOM     34 O34  LIG A   1      -3.028   1.592  -0.069  1.00 20.00    -0.285 OA
ATOM     35 C35  LIG A   1      -0.838   0.710  -0.674  1.00 20.00    +0.074 C 
ATOM     36 N36  LIG A   1      -0.465   2.094  -1.061  1.00 20.00    -0.321 NA
ATOM     37 C37  LIG A   1      -0.099   0.317   0.615  1.00 20.00    -0.028 C 
ATOM     38 C38  LIG A   1       1.336  -0.180   0.402  1.00 20.00    -0.034 C 
ATOM     39 C39  LIG A   1       2.253   0.792  -0.345  1.00 20.00    +0.018 C 
ATOM     40 N40  LIG A   1       3.639   0.340  -0.278  1.00 20.00    -0.357 NA
ATOM     41 C41  LIG A   1       4.086  -0.705  -1.013  1.00 20.00    +0.185 C 
ATOM     42 N42  LIG A   1       3.423  -1.310  -1.926  1.00 20.00    -0.270 NA
ATOM     43 N43  LIG A   1       5.348  -1.033  -0.672  1.00 20.00    -0.370 NA
ATOM     44 H44  LIG A   1      -1.554   0.176   2.574  1.00 20.00    +0.023 H 
ATOM     45 H45  LIG A   1       0.026   0.297   3.337  1.00 20.00    +0.023 H 
ATOM     46 H46  LIG A   1      -0.854   1.772   2.903  1.00 20.00    +0.023 H 
ATOM     47 H47  LIG A   1       0.169  -0.326   0.929  1.00 20.00    +0.032 H 
ATOM     48 H48  LIG A   1      -1.135   2.406   0.450  1.00 20.00    +0.032 H 
ATOM     49 H49  LIG A   1      -0.255   1.612  -0.785  1.00 20.00    +0.032 H 
ATOM     50 H50  LIG A   1       0.257  -0.316  -1.634  1.00 20.00    +0.063 H 
ATOM     51 H51  LIG A   1       0.390  -2.221  -3.151  1.00 20.00    +0.062 H 
ATOM     52 H52  LIG A   1      -1.645  -3.564  -3.640  1.00 20.00    +0.062 H 
ATOM     53 H53  LIG A   1      -3.795  -2.952  -2.590  1.00 20.00    +0.065 H 
ATOM     54 H54  LIG A   1      -6.473  -0.453   0.026  1.00 20.00    +0.065 H 
ATOM     55 H55  LIG A   1      -6.974   1.390   1.591  1.00 20.00    +0.062 H 
ATOM     56 H56  LIG A   1      -5.149   2.910   2.325  1.00 20.00    +0.062 H 
ATOM     57 H57  LIG A   1      -2.882   2.579   1.507  1.00 20.00    +0.063 H 
ATOM     58 H58  LIG A   1       2.002   0.925   2.156  1.00 20.00    +0.057 H 
ATOM     59 H59  LIG A   1       2.388   3.137   1.673  1.00 20.00    +0.119 HD
ATOM     60 H60  LIG A   1       1.177   3.253   0.631  1.00 20.00    +0.119 HD
ATOM     61 H61  LIG A   1       2.050  -1.296   1.503  1.00 20.00    +0.049 H 
ATOM     62 H62  LIG A   1       3.817  -1.100   1.571  1.00 20.00    +0.049 H 
ATOM     63 H63  LIG A   1       3.535  -3.331   0.575  1.00 20.00    +0.029 H 
ATOM     64 H64  LIG A   1       2.189  -2.752  -0.427  1.00 20.00    +0.029 H 
ATOM     65 H65  LIG A   1       5.135  -2.095  -0.720  1.00 20.00    +0.029 H 
ATOM     66 H66  LIG A   1       3.988  -2.545  -1.987  1.00 20.00    +0.029 H 
ATOM     67 H67  LIG A   1       3.097  -0.334  -2.125  1.00 20.00    +0.065 H 
ATOM     68 H68  LIG A   1       6.203   1.503  -0.649  1.00 20.00    +0.296 HD
ATOM     69 H69  LIG A   1      -5.697  -0.788   1.852  1.00 20.00    +0.024 H 
ATOM     70 H70  LIG A   1      -4.334  -1.906   1.703  1.00 20.00    +0.024 H 
ATOM     71 H71  LIG A   1      -4.045  -0.164   1.931  1.00 20.00    +0.024 H 
ATOM     72 H72  LIG A   1      -5.391  -1.465  -0.509  1.00 20.00    +0.038 H 
ATOM     73 H73  LIG A   1      -5.143   0.268  -0.331  1.00 20.00    +0.038 H 
ATOM     74 H74  LIG A   1      -0.562   0.042  -1.501  1.00 20.00    +0.055 H 
ATOM     75 H75  LIG A   1      -0.917   2.319  -1.948  1.00 20.00    +0.119 HD
ATOM     76 H76  LIG A   1      -0.903   2.732  -0.389  1.00 20.00    +0.119 HD
ATOM     77 H77  LIG A   1      -0.090   1.163   1.318  1.00 20.00    +0.029 H 
ATOM     78 H78  LIG A   1      -0.649  -0.482   1.132  1.00 20.00    +0.029 H 
ATOM     79 H79  LIG A   1       1.766  -0.401   1.388  1.00 20.00    +0.029 H 
ATOM     80 H80  LIG A   1       1.300  -1.138  -0.134  1.00 20.00    +0.029 H 
ATOM     81 H81  LIG A   1       2.202   1.784   0.119  1.00 20.00    +0.049 H 
ATOM     82 H82  LIG A   1       1.952   0.901  -1.393  1.00 20.00    +0.049 H 
ATOM     83 H83  LIG A   1       4.011   0.351   0.663  1.00 20.00    +0.163 HD
ATOM     84 H84  LIG A   1       3.981  -2.072  -2.311  1.00 20.00    +0.191 HD
ATOM     85 H85  LIG A   1       5.814  -1.636  -1.338  1.00 20.00    +0.159 HD
ATOM     86 H86  LIG A   1       5.914  -0.211  -0.486  1.00 20.00    +0.159 HD
ENDROOT
TORSDOF 0
