ROOT
ATOM      1 C1   LIG A   1      -1.808   0.349  -0.057  1.00 20.00    +0.000 C 
ATOM      2 C2   LIG A   1      -0.806  -0.762   0.158  1.00 20.00    +0.000 C 
ATOM      3 Se3  LIG A   1       0.797  -0.090   1.019  1.00 20.00    +0.000 Se
ATOM      4 C4   LIG A   1       2.215   0.275  -0.226  1.00 20.00    +0.000 C 
ATOM      5 N5   LIG A   1     -10.522   1.302   0.280  1.00 20.00    -0.289 NA
ATOM      6 C6   LIG A   1     -10.291   0.127   0.710  1.00 20.00    +0.092 C 
ATOM      7 N7   LIG A   1     -10.417  -0.066   2.137  1.00 20.00    -0.388 NA
ATOM      8 C8   LIG A   1      -9.922  -1.058  -0.078  1.00 20.00    +0.022 C 
ATOM      9 C9   LIG A   1      -9.619  -0.824  -1.511  1.00 20.00    +0.022 C 
ATOM     10 N10  LIG A   1      -8.518   0.041  -1.746  1.00 20.00    -0.384 NA
ATOM     11 C11  LIG A   1      -7.154  -0.214  -1.491  1.00 20.00    +0.038 A 
ATOM     12 C12  LIG A   1      -6.651  -1.401  -1.013  1.00 20.00    -0.038 A 
ATOM     13 C13  LIG A   1      -5.302  -1.609  -0.757  1.00 20.00    -0.045 A 
ATOM     14 C14  LIG A   1      -4.393  -0.598  -0.982  1.00 20.00    +0.065 A 
ATOM     15 C15  LIG A   1      -3.047  -0.766  -0.740  1.00 20.00    +0.200 C 
ATOM     16 O16  LIG A   1      -2.580  -1.827  -0.309  1.00 20.00    -0.288 OA
ATOM     17 C17  LIG A   1      -2.229   0.312  -1.001  1.00 20.00    +0.065 C 
ATOM     18 C18  LIG A   1      -0.786   0.289  -0.789  1.00 20.00    -0.011 A 
ATOM     19 C19  LIG A   1       0.062   0.777  -1.758  1.00 20.00    -0.052 A 
ATOM     20 C20  LIG A   1       1.426   0.774  -1.579  1.00 20.00    -0.038 A 
ATOM     21 C21  LIG A   1       1.980   0.269  -0.395  1.00 20.00    +0.034 A 
ATOM     22 N22  LIG A   1       3.394   0.265  -0.187  1.00 20.00    -0.385 NA
ATOM     23 C23  LIG A   1       3.889  -0.274   1.059  1.00 20.00    +0.016 C 
ATOM     24 C24  LIG A   1       5.401  -0.140   1.148  1.00 20.00    -0.023 C 
ATOM     25 C25  LIG A   1       5.715   1.326   1.069  1.00 20.00    -0.003 C 
ATOM     26 N26  LIG A   1       7.130   1.537   1.168  1.00 20.00    -0.317 NA
ATOM     27 C27  LIG A   1       7.812   1.056   0.007  1.00 20.00    -0.005 C 
ATOM     28 C28  LIG A   1       9.278   1.349   0.127  1.00 20.00    -0.039 C 
ATOM     29 C29  LIG A   1       9.914   0.736   1.312  1.00 20.00    -0.040 C 
ATOM     30 C30  LIG A   1       9.846  -0.752   1.378  1.00 20.00    -0.008 C 
ATOM     31 N31  LIG A   1       8.519  -1.266   1.425  1.00 20.00    -0.330 NA
ATOM     32 C32  LIG A   1       1.104  -0.216   0.564  1.00 20.00    -0.038 A 
ATOM     33 C33  LIG A   1      -0.266  -0.215   0.390  1.00 20.00    -0.052 A 
ATOM     34 C34  LIG A   1      -2.770   1.489  -1.482  1.00 20.00    +0.103 C 
ATOM     35 O35  LIG A   1      -4.059   1.606  -1.698  1.00 20.00    -0.463 OA
ATOM     36 C36  LIG A   1      -4.864   0.603  -1.461  1.00 20.00    +0.139 A 
ATOM     37 C37  LIG A   1      -6.205   0.794  -1.710  1.00 20.00    +0.005 A 
ATOM     38 H38  LIG A   1      -2.798   0.137   0.393  1.00 20.00    +0.000 H 
ATOM     39 H39  LIG A   1      -1.950   0.487  -1.137  1.00 20.00    +0.000 H 
ATOM     40 H40  LIG A   1      -1.435   1.258   0.454  1.00 20.00    +0.000 H 
ATOM     41 H41  LIG A   1      -1.298  -1.496   0.849  1.00 20.00    +0.000 H 
ATOM     42 H42  LIG A   1      -0.514  -1.258  -0.798  1.00 20.00    +0.000 H 
ATOM     43 H43  LIG A   1       2.364   1.381  -0.271  1.00 20.00    +0.000 H 
ATOM     44 H44  LIG A   1       2.046  -0.122  -1.237  1.00 20.00    +0.000 H 
ATOM     45 H45  LIG A   1       3.188  -0.160   0.119  1.00 20.00    +0.000 H 
ATOM     46 H46  LIG A   1     -10.465   1.562  -0.713  1.00 20.00    +0.189 HD
ATOM     47 H47  LIG A   1     -10.252   0.731   2.805  1.00 20.00    +0.157 HD
ATOM     48 H48  LIG A   1     -10.674  -0.990   2.547  1.00 20.00    +0.157 HD
ATOM     49 H49  LIG A   1      -9.084  -1.553   0.444  1.00 20.00    +0.037 H 
ATOM     50 H50  LIG A   1     -10.758  -1.835   0.008  1.00 20.00    +0.037 H 
ATOM     51 H51  LIG A   1     -10.524  -0.516  -2.104  1.00 20.00    +0.049 H 
ATOM     52 H52  LIG A   1      -9.353  -1.826  -1.968  1.00 20.00    +0.049 H 
ATOM     53 H53  LIG A   1      -8.736   0.992  -2.173  1.00 20.00    +0.160 HD
ATOM     54 H54  LIG A   1      -7.299  -2.231  -0.832  1.00 20.00    +0.064 H 
ATOM     55 H55  LIG A   1      -4.908  -2.539  -0.382  1.00 20.00    +0.063 H 
ATOM     56 H56  LIG A   1      -0.357   1.176  -2.692  1.00 20.00    +0.063 H 
ATOM     57 H57  LIG A   1       2.111   1.153  -2.330  1.00 20.00    +0.064 H 
ATOM     58 H58  LIG A   1       3.993   0.651  -0.947  1.00 20.00    +0.160 HD
ATOM     59 H59  LIG A   1       3.419   0.209   1.923  1.00 20.00    +0.049 H 
ATOM     60 H60  LIG A   1       3.625  -1.366   1.047  1.00 20.00    +0.049 H 
ATOM     61 H61  LIG A   1       5.829  -0.686   0.295  1.00 20.00    +0.030 H 
ATOM     62 H62  LIG A   1       5.723  -0.536   2.121  1.00 20.00    +0.030 H 
ATOM     63 H63  LIG A   1       5.254   1.845   1.950  1.00 20.00    +0.043 H 
ATOM     64 H64  LIG A   1       5.280   1.774   0.146  1.00 20.00    +0.043 H 
ATOM     65 H65  LIG A   1       7.486   1.052   2.011  1.00 20.00    +0.122 HD
ATOM     66 H66  LIG A   1       7.593   0.018  -0.243  1.00 20.00    +0.043 H 
ATOM     67 H67  LIG A   1       7.460   1.634  -0.918  1.00 20.00    +0.043 H 
ATOM     68 H68  LIG A   1       9.813   1.105  -0.831  1.00 20.00    +0.028 H 
ATOM     69 H69  LIG A   1       9.353   2.468   0.246  1.00 20.00    +0.028 H 
ATOM     70 H70  LIG A   1       9.476   1.190   2.237  1.00 20.00    +0.028 H 
ATOM     71 H71  LIG A   1      11.005   1.012   1.326  1.00 20.00    +0.028 H 
ATOM     72 H72  LIG A   1      10.358  -1.197   0.494  1.00 20.00    +0.043 H 
ATOM     73 H73  LIG A   1      10.348  -1.093   2.332  1.00 20.00    +0.043 H 
ATOM     74 H74  LIG A   1       8.073  -1.248   2.353  1.00 20.00    +0.118 HD
ATOM     75 H75  LIG A   1       8.359  -2.137   0.870  1.00 20.00    +0.118 HD
ATOM     76 H76  LIG A   1       1.535  -0.610   1.489  1.00 20.00    +0.064 H 
ATOM     77 H77  LIG A   1      -0.902  -0.613   1.187  1.00 20.00    +0.063 H 
ATOM     78 H78  LIG A   1      -2.118   2.352  -1.691  1.00 20.00    +0.105 H 
ATOM     79 H79  LIG A   1      -6.536   1.773  -2.093  1.00 20.00    +0.068 H 
ENDROOT
TORSDOF 0
