MODEL 1
REMARK VINA RESULT:   -11.559      0.000      0.000
REMARK INTER + INTRA:         -11.559
REMARK INTER:                 -11.559
REMARK INTRA:                   0.000
REMARK UNBOUND:                 0.000
ROOT
ATOM      1 C1   LIG A   1      19.197  21.275   9.495  1.00 20.00    -0.044 C 
ATOM      2 C2   LIG A   1      20.142  20.038   9.488  1.00 20.00    +0.047 C 
ATOM      3 C3   LIG A   1      21.590  20.576   9.366  1.00 20.00    -0.044 C 
ATOM      4 C4   LIG A   1      19.962  19.362  10.882  1.00 20.00    -0.006 C 
ATOM      5 C5   LIG A   1      19.997  17.834  10.849  1.00 20.00    +0.058 C 
ATOM      6 O6   LIG A   1      20.402  17.336  12.133  1.00 20.00    -0.393 OA
ATOM      7 C7   LIG A   1      20.947  17.327   9.780  1.00 20.00    -0.006 C 
ATOM      8 C8   LIG A   1      20.482  17.773   8.368  1.00 20.00    +0.047 C 
ATOM      9 C9   LIG A   1      21.726  17.723   7.441  1.00 20.00    -0.044 C 
ATOM     10 C10  LIG A   1      19.475  16.713   7.845  1.00 20.00    -0.044 C 
ATOM     11 N11  LIG A   1      19.750  19.067   8.444  1.00 20.00    -0.144 NA
ATOM     12 O12  LIG A   1      19.688  19.687   7.152  1.00 20.00    -0.120 OA
ATOM     13 C13  LIG A   1      21.945  11.384   3.619  1.00 20.00    -0.060 C 
ATOM     14 C14  LIG A   1      21.858  12.872   4.007  1.00 20.00    -0.016 C 
ATOM     15 C15  LIG A   1      20.443  13.368   3.547  1.00 20.00    -0.023 C 
ATOM     16 C16  LIG A   1      20.053  14.709   4.101  1.00 20.00    -0.048 A 
ATOM     17 C17  LIG A   1      19.124  14.781   5.142  1.00 20.00    -0.058 A 
ATOM     18 C18  LIG A   1      19.140  15.881   5.993  1.00 20.00    -0.051 A 
ATOM     19 C19  LIG A   1      20.126  16.856   5.830  1.00 20.00    +0.017 A 
ATOM     20 C20  LIG A   1      20.818  16.928   4.614  1.00 20.00    -0.051 A 
ATOM     21 C21  LIG A   1      20.770  15.851   3.736  1.00 20.00    -0.058 A 
ATOM     22 C22  LIG A   1      20.611  17.617   6.998  1.00 20.00    +0.140 C 
ATOM     23 C23  LIG A   1      21.908  17.578   7.382  1.00 20.00    +0.047 C 
ATOM     24 C24  LIG A   1      22.957  16.577   6.999  1.00 20.00    +0.256 C 
ATOM     25 O25  LIG A   1      24.137  16.896   7.129  1.00 20.00    -0.269 OA
ATOM     26 N26  LIG A   1      22.506  15.264   6.940  1.00 20.00    -0.278 NA
ATOM     27 C27  LIG A   1      22.512  14.527   8.214  1.00 20.00    +0.029 C 
ATOM     28 C28  LIG A   1      21.894  15.237   9.445  1.00 20.00    -0.034 C 
ATOM     29 C29  LIG A   1      20.368  15.322   9.362  1.00 20.00    -0.034 C 
ATOM     30 C30  LIG A   1      19.696  16.349  10.295  1.00 20.00    +0.085 C 
ATOM     31 C31  LIG A   1      18.188  16.149  10.214  1.00 20.00    +0.311 C 
ATOM     32 O32  LIG A   1      17.461  16.363   9.259  1.00 20.00    -0.252 OA
ATOM     33 O33  LIG A   1      17.669  15.645  11.356  1.00 20.00    -0.481 OA
ATOM     34 C34  LIG A   1      20.043  17.831  10.177  1.00 20.00    +0.009 A 
ATOM     35 C35  LIG A   1      20.457  18.480  11.357  1.00 20.00    -0.052 A 
ATOM     36 C36  LIG A   1      20.716  19.858  11.397  1.00 20.00    -0.038 A 
ATOM     37 C37  LIG A   1      20.530  20.665  10.277  1.00 20.00    +0.038 A 
ATOM     38 N38  LIG A   1      20.827  22.025  10.234  1.00 20.00    -0.385 NA
ATOM     39 C39  LIG A   1      20.947  22.839  11.438  1.00 20.00    +0.016 C 
ATOM     40 C40  LIG A   1      19.576  23.146  12.042  1.00 20.00    -0.023 C 
ATOM     41 C41  LIG A   1      19.720  24.037  13.278  1.00 20.00    -0.003 C 
ATOM     42 N42  LIG A   1      18.398  24.361  13.814  1.00 20.00    -0.317 NA
ATOM     43 C43  LIG A   1      18.470  25.197  15.014  1.00 20.00    -0.005 C 
ATOM     44 C44  LIG A   1      17.920  26.603  14.754  1.00 20.00    -0.039 C 
ATOM     45 C45  LIG A   1      18.747  27.469  13.794  1.00 20.00    -0.040 C 
ATOM     46 C46  LIG A   1      20.180  27.766  14.245  1.00 20.00    -0.008 C 
ATOM     47 N47  LIG A   1      20.244  28.505  15.501  1.00 20.00    -0.330 NA
ATOM     48 C48  LIG A   1      20.152  20.026   9.092  1.00 20.00    +0.004 A 
ATOM     49 C49  LIG A   1      19.923  18.639   9.032  1.00 20.00    +0.133 A 
ATOM     50 O50  LIG A   1      19.589  18.163   7.780  1.00 20.00    -0.456 OA
ATOM     51 C51  LIG A   1      22.791  14.602   5.737  1.00 20.00    +0.246 C 
ATOM     52 O52  LIG A   1      23.462  15.128   4.841  1.00 20.00    -0.273 OA
ATOM     53 C53  LIG A   1      22.211  13.148   5.527  1.00 20.00    +0.088 C 
ATOM     54 N54  LIG A   1      23.245  12.199   6.004  1.00 20.00    -0.320 NA
ATOM     55 H55  LIG A   1      19.386  21.905  10.373  1.00 20.00    +0.025 H 
ATOM     56 H56  LIG A   1      18.144  20.971   9.530  1.00 20.00    +0.025 H 
ATOM     57 H57  LIG A   1      19.337  21.912   8.613  1.00 20.00    +0.025 H 
ATOM     58 H58  LIG A   1      21.774  21.037   8.389  1.00 20.00    +0.025 H 
ATOM     59 H59  LIG A   1      21.779  21.348  10.122  1.00 20.00    +0.025 H 
ATOM     60 H60  LIG A   1      22.343  19.801   9.522  1.00 20.00    +0.025 H 
ATOM     61 H61  LIG A   1      20.719  19.735  11.585  1.00 20.00    +0.031 H 
ATOM     62 H62  LIG A   1      18.999  19.643  11.332  1.00 20.00    +0.031 H 
ATOM     63 H63  LIG A   1      18.989  17.442  10.668  1.00 20.00    +0.060 H 
ATOM     64 H64  LIG A   1      19.763  17.702  12.768  1.00 20.00    +0.210 HD
ATOM     65 H65  LIG A   1      21.958  17.691  10.007  1.00 20.00    +0.031 H 
ATOM     66 H66  LIG A   1      21.025  16.234   9.845  1.00 20.00    +0.031 H 
ATOM     67 H67  LIG A   1      22.225  16.748   7.519  1.00 20.00    +0.025 H 
ATOM     68 H68  LIG A   1      21.464  17.856   6.386  1.00 20.00    +0.025 H 
ATOM     69 H69  LIG A   1      22.467  18.484   7.700  1.00 20.00    +0.025 H 
ATOM     70 H70  LIG A   1      19.922  15.713   7.839  1.00 20.00    +0.025 H 
ATOM     71 H71  LIG A   1      19.155  16.926   6.819  1.00 20.00    +0.025 H 
ATOM     72 H72  LIG A   1      18.575  16.666   8.469  1.00 20.00    +0.025 H 
ATOM     73 H73  LIG A   1      22.971  11.007   3.695  1.00 20.00    +0.023 H 
ATOM     74 H74  LIG A   1      21.632  11.233   2.579  1.00 20.00    +0.023 H 
ATOM     75 H75  LIG A   1      21.297  10.770   4.257  1.00 20.00    +0.023 H 
ATOM     76 H76  LIG A   1      22.598  13.393   3.383  1.00 20.00    +0.032 H 
ATOM     77 H77  LIG A   1      19.687  12.627   3.832  1.00 20.00    +0.032 H 
ATOM     78 H78  LIG A   1      20.414  13.417   2.451  1.00 20.00    +0.032 H 
ATOM     79 H79  LIG A   1      18.485  13.936   5.384  1.00 20.00    +0.063 H 
ATOM     80 H80  LIG A   1      18.493  15.878   6.867  1.00 20.00    +0.063 H 
ATOM     81 H81  LIG A   1      21.539  17.722   4.426  1.00 20.00    +0.063 H 
ATOM     82 H82  LIG A   1      21.458  15.830   2.892  1.00 20.00    +0.063 H 
ATOM     83 H83  LIG A   1      22.270  18.198   8.197  1.00 20.00    +0.072 H 
ATOM     84 H84  LIG A   1      23.564  14.311   8.440  1.00 20.00    +0.050 H 
ATOM     85 H85  LIG A   1      22.010  13.565   8.090  1.00 20.00    +0.050 H 
ATOM     86 H86  LIG A   1      22.348  16.218   9.598  1.00 20.00    +0.029 H 
ATOM     87 H87  LIG A   1      22.151  14.653  10.338  1.00 20.00    +0.029 H 
ATOM     88 H88  LIG A   1      20.056  15.491   8.341  1.00 20.00    +0.028 H 
ATOM     89 H89  LIG A   1      19.968  14.325   9.598  1.00 20.00    +0.028 H 
ATOM     90 H90  LIG A   1      19.988  16.031  11.308  1.00 20.00    +0.047 H 
ATOM     91 H91  LIG A   1      16.706  15.594  11.171  1.00 20.00    +0.296 HD
ATOM     92 H92  LIG A   1      20.584  17.917  12.282  1.00 20.00    +0.063 H 
ATOM     93 H93  LIG A   1      21.058  20.279  12.338  1.00 20.00    +0.064 H 
ATOM     94 H94  LIG A   1      20.340  22.507   9.481  1.00 20.00    +0.160 HD
ATOM     95 H95  LIG A   1      21.426  23.782  11.148  1.00 20.00    +0.049 H 
ATOM     96 H96  LIG A   1      21.617  22.378  12.171  1.00 20.00    +0.049 H 
ATOM     97 H97  LIG A   1      19.063  22.216  12.314  1.00 20.00    +0.030 H 
ATOM     98 H98  LIG A   1      18.949  23.644  11.291  1.00 20.00    +0.030 H 
ATOM     99 H99  LIG A   1      20.320  23.515  14.033  1.00 20.00    +0.043 H 
ATOM    100 H100 LIG A   1      20.250  24.953  12.998  1.00 20.00    +0.043 H 
ATOM    101 H101 LIG A   1      17.912  23.493  14.042  1.00 20.00    +0.122 HD
ATOM    102 H102 LIG A   1      19.478  25.235  15.445  1.00 20.00    +0.043 H 
ATOM    103 H103 LIG A   1      17.840  24.735  15.784  1.00 20.00    +0.043 H 
ATOM    104 H104 LIG A   1      17.812  27.120  15.715  1.00 20.00    +0.028 H 
ATOM    105 H105 LIG A   1      16.902  26.520  14.350  1.00 20.00    +0.028 H 
ATOM    106 H106 LIG A   1      18.215  28.420  13.646  1.00 20.00    +0.028 H 
ATOM    107 H107 LIG A   1      18.781  26.992  12.807  1.00 20.00    +0.028 H 
ATOM    108 H108 LIG A   1      20.679  28.360  13.471  1.00 20.00    +0.043 H 
ATOM    109 H109 LIG A   1      20.759  26.843  14.348  1.00 20.00    +0.043 H 
ATOM    110 H110 LIG A   1      19.826  27.956  16.251  1.00 20.00    +0.118 HD
ATOM    111 H111 LIG A   1      19.680  29.352  15.426  1.00 20.00    +0.118 HD
ATOM    112 H112 LIG A   1      20.047  20.607   8.177  1.00 20.00    +0.068 H 
ATOM    113 H113 LIG A   1      21.307  13.019   6.132  1.00 20.00    +0.057 H 
ATOM    114 H114 LIG A   1      23.584  12.441   6.930  1.00 20.00    +0.119 HD
ATOM    115 H115 LIG A   1      22.860  11.259   6.059  1.00 20.00    +0.119 HD
ENDROOT
TORSDOF 0
                                                                                                                      
ENDMDL
MODEL 2
REMARK VINA RESULT:   -11.340      5.701      9.060
REMARK INTER + INTRA:         -11.340
REMARK INTER:                 -11.340
REMARK INTRA:                   0.000
REMARK UNBOUND:                 0.000
ROOT
ATOM      1 C1   LIG A   1      17.872  25.845  15.229  1.00 20.00    -0.044 C 
ATOM      2 C2   LIG A   1      19.124  26.121  14.346  1.00 20.00    +0.047 C 
ATOM      3 C3   LIG A   1      18.759  27.290  13.397  1.00 20.00    -0.044 C 
ATOM      4 C4   LIG A   1      20.240  26.589  15.331  1.00 20.00    -0.006 C 
ATOM      5 C5   LIG A   1      21.640  26.086  14.980  1.00 20.00    +0.058 C 
ATOM      6 O6   LIG A   1      22.622  26.977  15.530  1.00 20.00    -0.393 OA
ATOM      7 C7   LIG A   1      21.828  25.980  13.479  1.00 20.00    -0.006 C 
ATOM      8 C8   LIG A   1      20.841  24.951  12.866  1.00 20.00    +0.047 C 
ATOM      9 C9   LIG A   1      20.695  25.298  11.360  1.00 20.00    -0.044 C 
ATOM     10 C10  LIG A   1      21.502  23.550  12.955  1.00 20.00    -0.044 C 
ATOM     11 N11  LIG A   1      19.587  24.891  13.667  1.00 20.00    -0.144 NA
ATOM     12 O12  LIG A   1      18.531  24.287  12.907  1.00 20.00    -0.120 OA
ATOM     13 C13  LIG A   1      25.154  21.079   7.217  1.00 20.00    -0.060 C 
ATOM     14 C14  LIG A   1      23.914  21.742   7.849  1.00 20.00    -0.016 C 
ATOM     15 C15  LIG A   1      23.116  20.598   8.564  1.00 20.00    -0.023 C 
ATOM     16 C16  LIG A   1      22.037  21.087   9.489  1.00 20.00    -0.048 A 
ATOM     17 C17  LIG A   1      22.242  21.046  10.870  1.00 20.00    -0.058 A 
ATOM     18 C18  LIG A   1      21.545  21.928  11.687  1.00 20.00    -0.051 A 
ATOM     19 C19  LIG A   1      20.705  22.881  11.105  1.00 20.00    +0.017 A 
ATOM     20 C20  LIG A   1      20.275  22.692   9.785  1.00 20.00    -0.051 A 
ATOM     21 C21  LIG A   1      20.938  21.778   8.975  1.00 20.00    -0.058 A 
ATOM     22 C22  LIG A   1      20.495  24.182  11.768  1.00 20.00    +0.140 C 
ATOM     23 C23  LIG A   1      20.829  25.348  11.168  1.00 20.00    +0.047 C 
ATOM     24 C24  LIG A   1      21.737  25.557   9.993  1.00 20.00    +0.256 C 
ATOM     25 O25  LIG A   1      21.635  26.605   9.359  1.00 20.00    -0.269 OA
ATOM     26 N26  LIG A   1      22.871  24.752   9.992  1.00 20.00    -0.278 NA
ATOM     27 C27  LIG A   1      24.020  25.265  10.754  1.00 20.00    +0.029 C 
ATOM     28 C28  LIG A   1      23.746  25.778  12.189  1.00 20.00    -0.034 C 
ATOM     29 C29  LIG A   1      23.452  24.639  13.169  1.00 20.00    -0.034 C 
ATOM     30 C30  LIG A   1      22.768  25.042  14.490  1.00 20.00    +0.085 C 
ATOM     31 C31  LIG A   1      22.739  23.821  15.401  1.00 20.00    +0.311 C 
ATOM     32 O32  LIG A   1      22.102  22.793  15.246  1.00 20.00    -0.252 OA
ATOM     33 O33  LIG A   1      23.562  23.948  16.466  1.00 20.00    -0.481 OA
ATOM     34 C34  LIG A   1      21.400  25.720  14.468  1.00 20.00    +0.009 A 
ATOM     35 C35  LIG A   1      21.288  26.939  15.164  1.00 20.00    -0.052 A 
ATOM     36 C36  LIG A   1      20.064  27.613  15.294  1.00 20.00    -0.038 A 
ATOM     37 C37  LIG A   1      18.885  27.082  14.776  1.00 20.00    +0.038 A 
ATOM     38 N38  LIG A   1      17.652  27.728  14.816  1.00 20.00    -0.385 NA
ATOM     39 C39  LIG A   1      17.361  28.801  15.761  1.00 20.00    +0.016 C 
ATOM     40 C40  LIG A   1      17.134  28.256  17.172  1.00 20.00    -0.023 C 
ATOM     41 C41  LIG A   1      16.787  29.391  18.137  1.00 20.00    -0.003 C 
ATOM     42 N42  LIG A   1      16.525  28.848  19.470  1.00 20.00    -0.317 NA
ATOM     43 C43  LIG A   1      16.206  29.890  20.448  1.00 20.00    -0.005 C 
ATOM     44 C44  LIG A   1      14.748  29.801  20.908  1.00 20.00    -0.039 C 
ATOM     45 C45  LIG A   1      13.695  30.128  19.840  1.00 20.00    -0.040 C 
ATOM     46 C46  LIG A   1      13.763  31.545  19.263  1.00 20.00    -0.008 C 
ATOM     47 N47  LIG A   1      13.552  32.583  20.267  1.00 20.00    -0.330 NA
ATOM     48 C48  LIG A   1      18.991  25.890  14.054  1.00 20.00    +0.004 A 
ATOM     49 C49  LIG A   1      20.219  25.223  13.888  1.00 20.00    +0.133 A 
ATOM     50 O50  LIG A   1      20.155  24.079  13.121  1.00 20.00    -0.456 OA
ATOM     51 C51  LIG A   1      23.071  24.028   8.808  1.00 20.00    +0.246 C 
ATOM     52 O52  LIG A   1      22.338  24.165   7.822  1.00 20.00    -0.273 OA
ATOM     53 C53  LIG A   1      24.264  22.993   8.756  1.00 20.00    +0.088 C 
ATOM     54 N54  LIG A   1      25.440  23.718   8.218  1.00 20.00    -0.320 NA
ATOM     55 H55  LIG A   1      17.639  26.714  15.857  1.00 20.00    +0.025 H 
ATOM     56 H56  LIG A   1      18.038  24.993  15.898  1.00 20.00    +0.025 H 
ATOM     57 H57  LIG A   1      16.977  25.638  14.630  1.00 20.00    +0.025 H 
ATOM     58 H58  LIG A   1      17.997  27.000  12.666  1.00 20.00    +0.025 H 
ATOM     59 H59  LIG A   1      18.350  28.134  13.966  1.00 20.00    +0.025 H 
ATOM     60 H60  LIG A   1      19.622  27.676  12.851  1.00 20.00    +0.025 H 
ATOM     61 H61  LIG A   1      20.247  27.685  15.402  1.00 20.00    +0.031 H 
ATOM     62 H62  LIG A   1      20.030  26.244  16.353  1.00 20.00    +0.031 H 
ATOM     63 H63  LIG A   1      21.812  25.109  15.446  1.00 20.00    +0.060 H 
ATOM     64 H64  LIG A   1      22.442  27.006  16.485  1.00 20.00    +0.210 HD
ATOM     65 H65  LIG A   1      21.699  26.977  13.037  1.00 20.00    +0.031 H 
ATOM     66 H66  LIG A   1      22.869  25.711  13.256  1.00 20.00    +0.031 H 
ATOM     67 H67  LIG A   1      21.683  25.384  10.889  1.00 20.00    +0.025 H 
ATOM     68 H68  LIG A   1      20.151  24.525  10.807  1.00 20.00    +0.025 H 
ATOM     69 H69  LIG A   1      20.179  26.249  11.202  1.00 20.00    +0.025 H 
ATOM     70 H70  LIG A   1      22.476  23.540  12.453  1.00 20.00    +0.025 H 
ATOM     71 H71  LIG A   1      20.888  22.778  12.476  1.00 20.00    +0.025 H 
ATOM     72 H72  LIG A   1      21.666  23.244  13.995  1.00 20.00    +0.025 H 
ATOM     73 H73  LIG A   1      25.653  21.751   6.510  1.00 20.00    +0.023 H 
ATOM     74 H74  LIG A   1      24.871  20.183   6.652  1.00 20.00    +0.023 H 
ATOM     75 H75  LIG A   1      25.876  20.777   7.986  1.00 20.00    +0.023 H 
ATOM     76 H76  LIG A   1      23.294  22.089   7.010  1.00 20.00    +0.032 H 
ATOM     77 H77  LIG A   1      23.813  19.964   9.127  1.00 20.00    +0.032 H 
ATOM     78 H78  LIG A   1      22.663  19.943   7.808  1.00 20.00    +0.032 H 
ATOM     79 H79  LIG A   1      23.033  20.439  11.303  1.00 20.00    +0.063 H 
ATOM     80 H80  LIG A   1      21.791  21.971  12.745  1.00 20.00    +0.063 H 
ATOM     81 H81  LIG A   1      19.562  23.374   9.326  1.00 20.00    +0.063 H 
ATOM     82 H82  LIG A   1      20.729  21.775   7.905  1.00 20.00    +0.063 H 
ATOM     83 H83  LIG A   1      20.602  26.302  11.632  1.00 20.00    +0.072 H 
ATOM     84 H84  LIG A   1      24.431  26.099  10.168  1.00 20.00    +0.050 H 
ATOM     85 H85  LIG A   1      24.801  24.503  10.810  1.00 20.00    +0.050 H 
ATOM     86 H86  LIG A   1      22.953  26.530  12.190  1.00 20.00    +0.029 H 
ATOM     87 H87  LIG A   1      24.644  26.302  12.542  1.00 20.00    +0.029 H 
ATOM     88 H88  LIG A   1      22.881  23.861  12.679  1.00 20.00    +0.028 H 
ATOM     89 H89  LIG A   1      24.408  24.152  13.407  1.00 20.00    +0.028 H 
ATOM     90 H90  LIG A   1      23.470  25.749  14.957  1.00 20.00    +0.047 H 
ATOM     91 H91  LIG A   1      23.423  23.116  16.967  1.00 20.00    +0.296 HD
ATOM     92 H92  LIG A   1      22.164  27.392  15.630  1.00 20.00    +0.063 H 
ATOM     93 H93  LIG A   1      20.066  28.562  15.823  1.00 20.00    +0.064 H 
ATOM     94 H94  LIG A   1      16.871  27.086  14.699  1.00 20.00    +0.160 HD
ATOM     95 H95  LIG A   1      16.443  29.295  15.420  1.00 20.00    +0.049 H 
ATOM     96 H96  LIG A   1      18.137  29.573  15.746  1.00 20.00    +0.049 H 
ATOM     97 H97  LIG A   1      18.030  27.731  17.525  1.00 20.00    +0.030 H 
ATOM     98 H98  LIG A   1      16.322  27.517  17.152  1.00 20.00    +0.030 H 
ATOM     99 H99  LIG A   1      17.618  30.104  18.173  1.00 20.00    +0.043 H 
ATOM    100 H100 LIG A   1      15.903  29.919  17.765  1.00 20.00    +0.043 H 
ATOM    101 H101 LIG A   1      17.350  28.336  19.785  1.00 20.00    +0.122 HD
ATOM    102 H102 LIG A   1      16.452  30.897  20.089  1.00 20.00    +0.043 H 
ATOM    103 H103 LIG A   1      16.839  29.730  21.329  1.00 20.00    +0.043 H 
ATOM    104 H104 LIG A   1      14.612  30.464  21.771  1.00 20.00    +0.028 H 
ATOM    105 H105 LIG A   1      14.552  28.788  21.283  1.00 20.00    +0.028 H 
ATOM    106 H106 LIG A   1      12.701  29.968  20.279  1.00 20.00    +0.028 H 
ATOM    107 H107 LIG A   1      13.776  29.409  19.015  1.00 20.00    +0.028 H 
ATOM    108 H108 LIG A   1      12.990  31.651  18.493  1.00 20.00    +0.043 H 
ATOM    109 H109 LIG A   1      14.721  31.723  18.766  1.00 20.00    +0.043 H 
ATOM    110 H110 LIG A   1      14.285  32.538  20.975  1.00 20.00    +0.118 HD
ATOM    111 H111 LIG A   1      12.676  32.407  20.759  1.00 20.00    +0.118 HD
ATOM    112 H112 LIG A   1      18.106  25.465  13.584  1.00 20.00    +0.068 H 
ATOM    113 H113 LIG A   1      24.496  22.645   9.768  1.00 20.00    +0.057 H 
ATOM    114 H114 LIG A   1      25.600  24.595   8.703  1.00 20.00    +0.119 HD
ATOM    115 H115 LIG A   1      26.280  23.154   8.328  1.00 20.00    +0.119 HD
ENDROOT
TORSDOF 0
                                                                                                                      
ENDMDL
MODEL 3
REMARK VINA RESULT:   -11.288      2.814      9.772
REMARK INTER + INTRA:         -11.288
REMARK INTER:                 -11.288
REMARK INTRA:                   0.000
REMARK UNBOUND:                 0.000
ROOT
ATOM      1 C1   LIG A   1      20.926  16.258   6.197  1.00 20.00    -0.044 C 
ATOM      2 C2   LIG A   1      20.346  17.390   7.094  1.00 20.00    +0.047 C 
ATOM      3 C3   LIG A   1      19.652  18.403   6.150  1.00 20.00    -0.044 C 
ATOM      4 C4   LIG A   1      19.272  16.707   7.994  1.00 20.00    -0.006 C 
ATOM      5 C5   LIG A   1      19.214  17.243   9.424  1.00 20.00    +0.058 C 
ATOM      6 O6   LIG A   1      17.907  17.016   9.971  1.00 20.00    -0.393 OA
ATOM      7 C7   LIG A   1      19.538  18.725   9.471  1.00 20.00    -0.006 C 
ATOM      8 C8   LIG A   1      20.983  18.994   8.972  1.00 20.00    +0.047 C 
ATOM      9 C9   LIG A   1      21.043  20.478   8.522  1.00 20.00    -0.044 C 
ATOM     10 C10  LIG A   1      21.939  18.841  10.186  1.00 20.00    -0.044 C 
ATOM     11 N11  LIG A   1      21.388  17.970   7.970  1.00 20.00    -0.144 NA
ATOM     12 O12  LIG A   1      22.514  18.427   7.208  1.00 20.00    -0.120 OA
ATOM     13 C13  LIG A   1      23.805  24.774  13.884  1.00 20.00    -0.060 C 
ATOM     14 C14  LIG A   1      23.596  24.016  12.559  1.00 20.00    -0.016 C 
ATOM     15 C15  LIG A   1      24.795  23.014  12.429  1.00 20.00    -0.023 C 
ATOM     16 C16  LIG A   1      24.615  21.978  11.356  1.00 20.00    -0.048 A 
ATOM     17 C17  LIG A   1      24.284  20.668  11.711  1.00 20.00    -0.058 A 
ATOM     18 C18  LIG A   1      23.620  19.862  10.793  1.00 20.00    -0.051 A 
ATOM     19 C19  LIG A   1      23.238  20.399   9.562  1.00 20.00    +0.017 A 
ATOM     20 C20  LIG A   1      23.852  21.575   9.113  1.00 20.00    -0.051 A 
ATOM     21 C21  LIG A   1      24.558  22.365  10.015  1.00 20.00    -0.058 A 
ATOM     22 C22  LIG A   1      22.033  19.892   8.878  1.00 20.00    +0.140 C 
ATOM     23 C23  LIG A   1      20.982  20.697   8.599  1.00 20.00    +0.047 C 
ATOM     24 C24  LIG A   1      20.664  22.040   9.185  1.00 20.00    +0.256 C 
ATOM     25 O25  LIG A   1      19.904  22.780   8.564  1.00 20.00    -0.269 OA
ATOM     26 N26  LIG A   1      20.912  22.146  10.549  1.00 20.00    -0.278 NA
ATOM     27 C27  LIG A   1      19.828  21.691  11.434  1.00 20.00    +0.029 C 
ATOM     28 C28  LIG A   1      19.193  20.314  11.125  1.00 20.00    -0.034 C 
ATOM     29 C29  LIG A   1      20.126  19.150  11.472  1.00 20.00    -0.034 C 
ATOM     30 C30  LIG A   1      19.779  17.791  10.833  1.00 20.00    +0.085 C 
ATOM     31 C31  LIG A   1      20.689  16.733  11.444  1.00 20.00    +0.311 C 
ATOM     32 O32  LIG A   1      21.896  16.624  11.309  1.00 20.00    -0.252 OA
ATOM     33 O33  LIG A   1      20.021  15.870  12.241  1.00 20.00    -0.481 OA
ATOM     34 C34  LIG A   1      19.743  17.647   9.313  1.00 20.00    +0.009 A 
ATOM     35 C35  LIG A   1      18.563  17.115   8.757  1.00 20.00    -0.052 A 
ATOM     36 C36  LIG A   1      18.441  16.849   7.384  1.00 20.00    -0.038 A 
ATOM     37 C37  LIG A   1      19.504  17.057   6.508  1.00 20.00    +0.038 A 
ATOM     38 N38  LIG A   1      19.428  16.874   5.129  1.00 20.00    -0.385 NA
ATOM     39 C39  LIG A   1      18.402  16.046   4.505  1.00 20.00    +0.016 C 
ATOM     40 C40  LIG A   1      18.690  14.557   4.699  1.00 20.00    -0.023 C 
ATOM     41 C41  LIG A   1      17.627  13.707   4.000  1.00 20.00    -0.003 C 
ATOM     42 N42  LIG A   1      17.946  12.287   4.154  1.00 20.00    -0.317 NA
ATOM     43 C43  LIG A   1      16.951  11.418   3.521  1.00 20.00    -0.005 C 
ATOM     44 C44  LIG A   1      17.535  10.684   2.311  1.00 20.00    -0.039 C 
ATOM     45 C45  LIG A   1      17.896  11.568   1.110  1.00 20.00    -0.040 C 
ATOM     46 C46  LIG A   1      16.726  12.335   0.485  1.00 20.00    -0.008 C 
ATOM     47 N47  LIG A   1      15.686  11.460  -0.045  1.00 20.00    -0.330 NA
ATOM     48 C48  LIG A   1      20.667  17.618   7.044  1.00 20.00    +0.004 A 
ATOM     49 C49  LIG A   1      20.788  17.920   8.413  1.00 20.00    +0.133 A 
ATOM     50 O50  LIG A   1      21.988  18.498   8.772  1.00 20.00    -0.456 OA
ATOM     51 C51  LIG A   1      21.716  23.236  10.913  1.00 20.00    +0.246 C 
ATOM     52 O52  LIG A   1      22.096  24.076  10.088  1.00 20.00    -0.273 OA
ATOM     53 C53  LIG A   1      22.155  23.370  12.424  1.00 20.00    +0.088 C 
ATOM     54 N54  LIG A   1      21.138  24.215  13.095  1.00 20.00    -0.320 NA
ATOM     55 H55  LIG A   1      20.122  15.721   5.679  1.00 20.00    +0.025 H 
ATOM     56 H56  LIG A   1      21.479  15.521   6.793  1.00 20.00    +0.025 H 
ATOM     57 H57  LIG A   1      21.600  16.643   5.423  1.00 20.00    +0.025 H 
ATOM     58 H58  LIG A   1      20.372  18.931   5.515  1.00 20.00    +0.025 H 
ATOM     59 H59  LIG A   1      18.954  17.888   5.479  1.00 20.00    +0.025 H 
ATOM     60 H60  LIG A   1      19.066  19.150   6.690  1.00 20.00    +0.025 H 
ATOM     61 H61  LIG A   1      18.280  16.789   7.528  1.00 20.00    +0.031 H 
ATOM     62 H62  LIG A   1      19.456  15.626   8.072  1.00 20.00    +0.031 H 
ATOM     63 H63  LIG A   1      19.917  16.689  10.058  1.00 20.00    +0.060 H 
ATOM     64 H64  LIG A   1      17.760  16.057   9.904  1.00 20.00    +0.210 HD
ATOM     65 H65  LIG A   1      18.796  19.266   8.869  1.00 20.00    +0.031 H 
ATOM     66 H66  LIG A   1      19.395  19.101  10.492  1.00 20.00    +0.031 H 
ATOM     67 H67  LIG A   1      20.656  21.134   9.312  1.00 20.00    +0.025 H 
ATOM     68 H68  LIG A   1      22.066  20.809   8.314  1.00 20.00    +0.025 H 
ATOM     69 H69  LIG A   1      20.442  20.665   7.628  1.00 20.00    +0.025 H 
ATOM     70 H70  LIG A   1      21.649  19.512  11.003  1.00 20.00    +0.025 H 
ATOM     71 H71  LIG A   1      22.974  19.086   9.923  1.00 20.00    +0.025 H 
ATOM     72 H72  LIG A   1      21.930  17.819  10.583  1.00 20.00    +0.025 H 
ATOM     73 H73  LIG A   1      23.147  25.648  13.957  1.00 20.00    +0.023 H 
ATOM     74 H74  LIG A   1      24.832  25.149  13.962  1.00 20.00    +0.023 H 
ATOM     75 H75  LIG A   1      23.619  24.122  14.747  1.00 20.00    +0.023 H 
ATOM     76 H76  LIG A   1      23.714  24.762  11.760  1.00 20.00    +0.032 H 
ATOM     77 H77  LIG A   1      24.956  22.512  13.391  1.00 20.00    +0.032 H 
ATOM     78 H78  LIG A   1      25.717  23.574  12.227  1.00 20.00    +0.032 H 
ATOM     79 H79  LIG A   1      24.410  20.313  12.730  1.00 20.00    +0.063 H 
ATOM     80 H80  LIG A   1      23.265  18.885  11.113  1.00 20.00    +0.063 H 
ATOM     81 H81  LIG A   1      23.633  21.981   8.127  1.00 20.00    +0.063 H 
ATOM     82 H82  LIG A   1      24.864  23.365   9.710  1.00 20.00    +0.063 H 
ATOM     83 H83  LIG A   1      20.132  20.333   8.030  1.00 20.00    +0.072 H 
ATOM     84 H84  LIG A   1      19.039  22.452  11.370  1.00 20.00    +0.050 H 
ATOM     85 H85  LIG A   1      20.174  21.680  12.471  1.00 20.00    +0.050 H 
ATOM     86 H86  LIG A   1      18.850  20.265  10.089  1.00 20.00    +0.029 H 
ATOM     87 H87  LIG A   1      18.286  20.212  11.737  1.00 20.00    +0.029 H 
ATOM     88 H88  LIG A   1      21.151  19.413  11.249  1.00 20.00    +0.028 H 
ATOM     89 H89  LIG A   1      20.116  19.033  12.565  1.00 20.00    +0.028 H 
ATOM     90 H90  LIG A   1      18.767  17.566  11.202  1.00 20.00    +0.047 H 
ATOM     91 H91  LIG A   1      20.715  15.243  12.539  1.00 20.00    +0.296 HD
ATOM     92 H92  LIG A   1      17.706  16.888   9.392  1.00 20.00    +0.063 H 
ATOM     93 H93  LIG A   1      17.490  16.464   7.029  1.00 20.00    +0.064 H 
ATOM     94 H94  LIG A   1      20.343  16.753   4.701  1.00 20.00    +0.160 HD
ATOM     95 H95  LIG A   1      18.409  16.272   3.432  1.00 20.00    +0.049 H 
ATOM     96 H96  LIG A   1      17.399  16.312   4.857  1.00 20.00    +0.049 H 
ATOM     97 H97  LIG A   1      18.717  14.312   5.768  1.00 20.00    +0.030 H 
ATOM     98 H98  LIG A   1      19.685  14.322   4.296  1.00 20.00    +0.030 H 
ATOM     99 H99  LIG A   1      16.645  13.926   4.433  1.00 20.00    +0.043 H 
ATOM    100 H100 LIG A   1      17.598  13.975   2.938  1.00 20.00    +0.043 H 
ATOM    101 H101 LIG A   1      17.997  12.067   5.149  1.00 20.00    +0.122 HD
ATOM    102 H102 LIG A   1      16.029  11.951   3.260  1.00 20.00    +0.043 H 
ATOM    103 H103 LIG A   1      16.653  10.659   4.255  1.00 20.00    +0.043 H 
ATOM    104 H104 LIG A   1      16.826   9.909   1.996  1.00 20.00    +0.028 H 
ATOM    105 H105 LIG A   1      18.440  10.143   2.623  1.00 20.00    +0.028 H 
ATOM    106 H106 LIG A   1      18.357  10.932   0.342  1.00 20.00    +0.028 H 
ATOM    107 H107 LIG A   1      18.670  12.287   1.404  1.00 20.00    +0.028 H 
ATOM    108 H108 LIG A   1      17.107  12.952  -0.337  1.00 20.00    +0.043 H 
ATOM    109 H109 LIG A   1      16.276  13.023   1.206  1.00 20.00    +0.043 H 
ATOM    110 H110 LIG A   1      15.281  10.904   0.707  1.00 20.00    +0.118 HD
ATOM    111 H111 LIG A   1      16.102  10.792  -0.695  1.00 20.00    +0.118 HD
ATOM    112 H112 LIG A   1      21.504  17.849   6.388  1.00 20.00    +0.068 H 
ATOM    113 H113 LIG A   1      22.162  22.383  12.897  1.00 20.00    +0.057 H 
ATOM    114 H114 LIG A   1      20.194  23.893  12.907  1.00 20.00    +0.119 HD
ATOM    115 H115 LIG A   1      21.271  24.189  14.104  1.00 20.00    +0.119 HD
ENDROOT
TORSDOF 0
                                                                                                                      
ENDMDL
MODEL 4
REMARK VINA RESULT:   -11.254      2.953      9.953
REMARK INTER + INTRA:         -11.254
REMARK INTER:                 -11.254
REMARK INTRA:                   0.000
REMARK UNBOUND:                 0.000
ROOT
ATOM      1 C1   LIG A   1      18.098  16.503   6.396  1.00 20.00    -0.044 C 
ATOM      2 C2   LIG A   1      19.508  16.799   6.986  1.00 20.00    +0.047 C 
ATOM      3 C3   LIG A   1      19.984  15.503   7.689  1.00 20.00    -0.044 C 
ATOM      4 C4   LIG A   1      20.427  17.086   5.759  1.00 20.00    -0.006 C 
ATOM      5 C5   LIG A   1      21.463  18.185   5.993  1.00 20.00    +0.058 C 
ATOM      6 O6   LIG A   1      22.577  17.991   5.109  1.00 20.00    -0.393 OA
ATOM      7 C7   LIG A   1      21.946  18.191   7.431  1.00 20.00    -0.006 C 
ATOM      8 C8   LIG A   1      20.778  18.493   8.408  1.00 20.00    +0.047 C 
ATOM      9 C9   LIG A   1      21.192  17.943   9.799  1.00 20.00    -0.044 C 
ATOM     10 C10  LIG A   1      20.656  20.035   8.539  1.00 20.00    -0.044 C 
ATOM     11 N11  LIG A   1      19.490  18.002   7.847  1.00 20.00    -0.144 NA
ATOM     12 O12  LIG A   1      18.500  17.889   8.879  1.00 20.00    -0.120 OA
ATOM     13 C13  LIG A   1      24.012  23.313  14.048  1.00 20.00    -0.060 C 
ATOM     14 C14  LIG A   1      23.117  22.193  13.483  1.00 20.00    -0.016 C 
ATOM     15 C15  LIG A   1      21.725  22.848  13.180  1.00 20.00    -0.023 C 
ATOM     16 C16  LIG A   1      20.812  21.993  12.348  1.00 20.00    -0.048 A 
ATOM     17 C17  LIG A   1      20.624  22.296  10.997  1.00 20.00    -0.058 A 
ATOM     18 C18  LIG A   1      20.245  21.287  10.120  1.00 20.00    -0.051 A 
ATOM     19 C19  LIG A   1      20.127  19.979  10.594  1.00 20.00    +0.017 A 
ATOM     20 C20  LIG A   1      20.002  19.762  11.972  1.00 20.00    -0.051 A 
ATOM     21 C21  LIG A   1      20.335  20.782  12.856  1.00 20.00    -0.058 A 
ATOM     22 C22  LIG A   1      20.396  18.841   9.692  1.00 20.00    +0.140 C 
ATOM     23 C23  LIG A   1      21.377  17.946   9.952  1.00 20.00    +0.047 C 
ATOM     24 C24  LIG A   1      22.536  18.089  10.893  1.00 20.00    +0.256 C 
ATOM     25 O25  LIG A   1      23.100  17.068  11.278  1.00 20.00    -0.269 OA
ATOM     26 N26  LIG A   1      23.118  19.352  10.900  1.00 20.00    -0.278 NA
ATOM     27 C27  LIG A   1      24.143  19.590   9.872  1.00 20.00    +0.029 C 
ATOM     28 C28  LIG A   1      23.795  19.185   8.418  1.00 20.00    -0.034 C 
ATOM     29 C29  LIG A   1      22.766  20.124   7.782  1.00 20.00    -0.034 C 
ATOM     30 C30  LIG A   1      22.049  19.590   6.527  1.00 20.00    +0.085 C 
ATOM     31 C31  LIG A   1      21.224  20.725   5.933  1.00 20.00    +0.311 C 
ATOM     32 O32  LIG A   1      20.239  21.259   6.416  1.00 20.00    -0.252 OA
ATOM     33 O33  LIG A   1      21.715  21.163   4.752  1.00 20.00    -0.481 OA
ATOM     34 C34  LIG A   1      21.215  18.313   6.606  1.00 20.00    +0.009 A 
ATOM     35 C35  LIG A   1      21.521  17.300   5.677  1.00 20.00    -0.052 A 
ATOM     36 C36  LIG A   1      20.770  16.118   5.589  1.00 20.00    -0.038 A 
ATOM     37 C37  LIG A   1      19.650  15.910   6.391  1.00 20.00    +0.038 A 
ATOM     38 N38  LIG A   1      18.900  14.736   6.397  1.00 20.00    -0.385 NA
ATOM     39 C39  LIG A   1      18.923  13.786   5.291  1.00 20.00    +0.016 C 
ATOM     40 C40  LIG A   1      18.125  14.304   4.094  1.00 20.00    -0.023 C 
ATOM     41 C41  LIG A   1      18.125  13.275   2.961  1.00 20.00    -0.003 C 
ATOM     42 N42  LIG A   1      17.316  13.765   1.845  1.00 20.00    -0.317 NA
ATOM     43 C43  LIG A   1      17.293  12.830   0.717  1.00 20.00    -0.005 C 
ATOM     44 C44  LIG A   1      15.903  12.219   0.522  1.00 20.00    -0.039 C 
ATOM     45 C45  LIG A   1      15.431  11.277   1.638  1.00 20.00    -0.040 C 
ATOM     46 C46  LIG A   1      16.298  10.035   1.859  1.00 20.00    -0.008 C 
ATOM     47 N47  LIG A   1      16.358   9.163   0.691  1.00 20.00    -0.330 NA
ATOM     48 C48  LIG A   1      19.358  16.893   7.341  1.00 20.00    +0.004 A 
ATOM     49 C49  LIG A   1      20.126  18.067   7.461  1.00 20.00    +0.133 A 
ATOM     50 O50  LIG A   1      19.724  18.918   8.469  1.00 20.00    -0.456 OA
ATOM     51 C51  LIG A   1      23.241  19.930  12.172  1.00 20.00    +0.246 C 
ATOM     52 O52  LIG A   1      22.930  19.321  13.203  1.00 20.00    -0.273 OA
ATOM     53 C53  LIG A   1      23.777  21.413  12.271  1.00 20.00    +0.088 C 
ATOM     54 N54  LIG A   1      25.247  21.329  12.441  1.00 20.00    -0.320 NA
ATOM     55 H55  LIG A   1      18.153  15.719   5.630  1.00 20.00    +0.025 H 
ATOM     56 H56  LIG A   1      17.671  17.394   5.920  1.00 20.00    +0.025 H 
ATOM     57 H57  LIG A   1      17.392  16.153   7.157  1.00 20.00    +0.025 H 
ATOM     58 H58  LIG A   1      19.384  15.275   8.576  1.00 20.00    +0.025 H 
ATOM     59 H59  LIG A   1      19.893  14.643   7.014  1.00 20.00    +0.025 H 
ATOM     60 H60  LIG A   1      21.032  15.548   7.992  1.00 20.00    +0.025 H 
ATOM     61 H61  LIG A   1      20.932  16.163   5.441  1.00 20.00    +0.031 H 
ATOM     62 H62  LIG A   1      19.833  17.395   4.888  1.00 20.00    +0.031 H 
ATOM     63 H63  LIG A   1      21.033  19.161   5.741  1.00 20.00    +0.060 H 
ATOM     64 H64  LIG A   1      22.201  17.988   4.213  1.00 20.00    +0.210 HD
ATOM     65 H65  LIG A   1      22.415  17.223   7.649  1.00 20.00    +0.031 H 
ATOM     66 H66  LIG A   1      22.756  18.924   7.545  1.00 20.00    +0.031 H 
ATOM     67 H67  LIG A   1      22.186  18.316  10.078  1.00 20.00    +0.025 H 
ATOM     68 H68  LIG A   1      20.506  18.260  10.592  1.00 20.00    +0.025 H 
ATOM     69 H69  LIG A   1      21.242  16.851   9.815  1.00 20.00    +0.025 H 
ATOM     70 H70  LIG A   1      21.601  20.479   8.872  1.00 20.00    +0.025 H 
ATOM     71 H71  LIG A   1      19.892  20.323   9.270  1.00 20.00    +0.025 H 
ATOM     72 H72  LIG A   1      20.393  20.504   7.583  1.00 20.00    +0.025 H 
ATOM     73 H73  LIG A   1      24.927  22.910  14.497  1.00 20.00    +0.023 H 
ATOM     74 H74  LIG A   1      23.492  23.865  14.839  1.00 20.00    +0.023 H 
ATOM     75 H75  LIG A   1      24.290  24.030  13.266  1.00 20.00    +0.023 H 
ATOM     76 H76  LIG A   1      22.964  21.481  14.307  1.00 20.00    +0.032 H 
ATOM     77 H77  LIG A   1      21.877  23.810  12.675  1.00 20.00    +0.032 H 
ATOM     78 H78  LIG A   1      21.222  23.085  14.126  1.00 20.00    +0.032 H 
ATOM     79 H79  LIG A   1      20.899  23.268  10.596  1.00 20.00    +0.063 H 
ATOM     80 H80  LIG A   1      20.211  21.503   9.055  1.00 20.00    +0.063 H 
ATOM     81 H81  LIG A   1      19.833  18.763  12.369  1.00 20.00    +0.063 H 
ATOM     82 H82  LIG A   1      20.422  20.551  13.917  1.00 20.00    +0.063 H 
ATOM     83 H83  LIG A   1      21.519  17.072   9.323  1.00 20.00    +0.072 H 
ATOM     84 H84  LIG A   1      25.029  19.019  10.181  1.00 20.00    +0.050 H 
ATOM     85 H85  LIG A   1      24.431  20.644   9.870  1.00 20.00    +0.050 H 
ATOM     86 H86  LIG A   1      23.477  18.141   8.369  1.00 20.00    +0.029 H 
ATOM     87 H87  LIG A   1      24.715  19.238   7.820  1.00 20.00    +0.029 H 
ATOM     88 H88  LIG A   1      22.040  20.438   8.519  1.00 20.00    +0.028 H 
ATOM     89 H89  LIG A   1      23.288  21.054   7.515  1.00 20.00    +0.028 H 
ATOM     90 H90  LIG A   1      22.860  19.401   5.807  1.00 20.00    +0.047 H 
ATOM     91 H91  LIG A   1      21.082  21.862   4.482  1.00 20.00    +0.296 HD
ATOM     92 H92  LIG A   1      22.360  17.416   4.989  1.00 20.00    +0.063 H 
ATOM     93 H93  LIG A   1      21.086  15.374   4.865  1.00 20.00    +0.064 H 
ATOM     94 H94  LIG A   1      17.966  14.872   6.778  1.00 20.00    +0.160 HD
ATOM     95 H95  LIG A   1      18.463  12.857   5.648  1.00 20.00    +0.049 H 
ATOM     96 H96  LIG A   1      19.948  13.521   5.008  1.00 20.00    +0.049 H 
ATOM     97 H97  LIG A   1      18.548  15.250   3.735  1.00 20.00    +0.030 H 
ATOM     98 H98  LIG A   1      17.094  14.518   4.408  1.00 20.00    +0.030 H 
ATOM     99 H99  LIG A   1      19.155  13.095   2.635  1.00 20.00    +0.043 H 
ATOM    100 H100 LIG A   1      17.717  12.330   3.337  1.00 20.00    +0.043 H 
ATOM    101 H101 LIG A   1      17.696  14.658   1.530  1.00 20.00    +0.122 HD
ATOM    102 H102 LIG A   1      18.064  12.054   0.794  1.00 20.00    +0.043 H 
ATOM    103 H103 LIG A   1      17.535  13.395  -0.192  1.00 20.00    +0.043 H 
ATOM    104 H104 LIG A   1      15.885  11.688  -0.438  1.00 20.00    +0.028 H 
ATOM    105 H105 LIG A   1      15.166  13.028   0.423  1.00 20.00    +0.028 H 
ATOM    106 H106 LIG A   1      14.404  10.960   1.408  1.00 20.00    +0.028 H 
ATOM    107 H107 LIG A   1      15.365  11.832   2.582  1.00 20.00    +0.028 H 
ATOM    108 H108 LIG A   1      15.885   9.459   2.695  1.00 20.00    +0.043 H 
ATOM    109 H109 LIG A   1      17.316  10.311   2.148  1.00 20.00    +0.043 H 
ATOM    110 H110 LIG A   1      16.781   9.659  -0.093  1.00 20.00    +0.118 HD
ATOM    111 H111 LIG A   1      15.411   8.925   0.395  1.00 20.00    +0.118 HD
ATOM    112 H112 LIG A   1      18.526  16.749   8.027  1.00 20.00    +0.068 H 
ATOM    113 H113 LIG A   1      23.558  21.948  11.341  1.00 20.00    +0.057 H 
ATOM    114 H114 LIG A   1      25.675  20.720  11.750  1.00 20.00    +0.119 HD
ATOM    115 H115 LIG A   1      25.666  22.250  12.332  1.00 20.00    +0.119 HD
ENDROOT
TORSDOF 0
                                                                                                                      
ENDMDL
MODEL 5
REMARK VINA RESULT:   -11.129      2.179      2.626
REMARK INTER + INTRA:         -11.129
REMARK INTER:                 -11.129
REMARK INTRA:                   0.000
REMARK UNBOUND:                 0.000
ROOT
ATOM      1 C1   LIG A   1      19.805  20.212  10.663  1.00 20.00    -0.044 C 
ATOM      2 C2   LIG A   1      20.470  18.954  10.031  1.00 20.00    +0.047 C 
ATOM      3 C3   LIG A   1      21.614  19.458   9.118  1.00 20.00    -0.044 C 
ATOM      4 C4   LIG A   1      21.079  18.155  11.224  1.00 20.00    -0.006 C 
ATOM      5 C5   LIG A   1      20.969  16.637  11.087  1.00 20.00    +0.058 C 
ATOM      6 O6   LIG A   1      22.003  16.008  11.859  1.00 20.00    -0.393 OA
ATOM      7 C7   LIG A   1      21.078  16.205   9.637  1.00 20.00    -0.006 C 
ATOM      8 C8   LIG A   1      19.917  16.794   8.793  1.00 20.00    +0.047 C 
ATOM      9 C9   LIG A   1      20.382  16.796   7.312  1.00 20.00    -0.044 C 
ATOM     10 C10  LIG A   1      18.714  15.818   8.897  1.00 20.00    -0.044 C 
ATOM     11 N11  LIG A   1      19.469  18.096   9.359  1.00 20.00    -0.144 NA
ATOM     12 O12  LIG A   1      18.717  18.837   8.388  1.00 20.00    -0.120 OA
ATOM     13 C13  LIG A   1      17.843  10.840   3.718  1.00 20.00    -0.060 C 
ATOM     14 C14  LIG A   1      18.114  12.287   4.171  1.00 20.00    -0.016 C 
ATOM     15 C15  LIG A   1      16.740  12.865   4.656  1.00 20.00    -0.023 C 
ATOM     16 C16  LIG A   1      16.850  14.159   5.412  1.00 20.00    -0.048 A 
ATOM     17 C17  LIG A   1      16.708  14.160   6.802  1.00 20.00    -0.058 A 
ATOM     18 C18  LIG A   1      17.301  15.174   7.545  1.00 20.00    -0.051 A 
ATOM     19 C19  LIG A   1      18.082  16.131   6.894  1.00 20.00    +0.017 A 
ATOM     20 C20  LIG A   1      17.943  16.297   5.511  1.00 20.00    -0.051 A 
ATOM     21 C21  LIG A   1      17.310  15.308   4.765  1.00 20.00    -0.058 A 
ATOM     22 C22  LIG A   1      19.214  16.764   7.600  1.00 20.00    +0.140 C 
ATOM     23 C23  LIG A   1      20.484  16.651   7.150  1.00 20.00    +0.047 C 
ATOM     24 C24  LIG A   1      21.034  15.661   6.167  1.00 20.00    +0.256 C 
ATOM     25 O25  LIG A   1      22.090  15.931   5.600  1.00 20.00    -0.269 OA
ATOM     26 N26  LIG A   1      20.530  14.372   6.306  1.00 20.00    -0.278 NA
ATOM     27 C27  LIG A   1      21.217  13.520   7.289  1.00 20.00    +0.029 C 
ATOM     28 C28  LIG A   1      21.487  14.128   8.687  1.00 20.00    -0.034 C 
ATOM     29 C29  LIG A   1      20.208  14.265   9.519  1.00 20.00    -0.034 C 
ATOM     30 C30  LIG A   1      20.287  15.219  10.727  1.00 20.00    +0.085 C 
ATOM     31 C31  LIG A   1      19.002  15.072  11.533  1.00 20.00    +0.311 C 
ATOM     32 O32  LIG A   1      17.875  15.396  11.198  1.00 20.00    -0.252 OA
ATOM     33 O33  LIG A   1      19.204  14.479  12.730  1.00 20.00    -0.481 OA
ATOM     34 C34  LIG A   1      20.615  16.696  10.517  1.00 20.00    +0.009 A 
ATOM     35 C35  LIG A   1      21.687  17.218  11.266  1.00 20.00    -0.052 A 
ATOM     36 C36  LIG A   1      22.029  18.578  11.229  1.00 20.00    -0.038 A 
ATOM     37 C37  LIG A   1      21.291  19.492  10.480  1.00 20.00    +0.038 A 
ATOM     38 N38  LIG A   1      21.614  20.840  10.351  1.00 20.00    -0.385 NA
ATOM     39 C39  LIG A   1      22.474  21.534  11.303  1.00 20.00    +0.016 C 
ATOM     40 C40  LIG A   1      21.738  21.823  12.612  1.00 20.00    -0.023 C 
ATOM     41 C41  LIG A   1      22.642  22.589  13.580  1.00 20.00    -0.003 C 
ATOM     42 N42  LIG A   1      21.908  22.900  14.807  1.00 20.00    -0.317 NA
ATOM     43 C43  LIG A   1      22.728  23.618  15.785  1.00 20.00    -0.005 C 
ATOM     44 C44  LIG A   1      22.242  25.057  15.978  1.00 20.00    -0.039 C 
ATOM     45 C45  LIG A   1      22.422  25.985  14.770  1.00 20.00    -0.040 C 
ATOM     46 C46  LIG A   1      23.869  26.195  14.314  1.00 20.00    -0.008 C 
ATOM     47 N47  LIG A   1      24.708  26.812  15.336  1.00 20.00    -0.330 NA
ATOM     48 C48  LIG A   1      20.246  18.978   9.705  1.00 20.00    +0.004 A 
ATOM     49 C49  LIG A   1      19.917  17.610   9.708  1.00 20.00    +0.133 A 
ATOM     50 O50  LIG A   1      18.882  17.264   8.863  1.00 20.00    -0.456 OA
ATOM     51 C51  LIG A   1      20.011  13.819   5.126  1.00 20.00    +0.246 C 
ATOM     52 O52  LIG A   1      20.076  14.407   4.040  1.00 20.00    -0.273 OA
ATOM     53 C53  LIG A   1      19.305  12.408   5.210  1.00 20.00    +0.088 C 
ATOM     54 N54  LIG A   1      20.345  11.389   4.935  1.00 20.00    -0.320 NA
ATOM     55 H55  LIG A   1      20.517  20.750  11.300  1.00 20.00    +0.025 H 
ATOM     56 H56  LIG A   1      18.948  19.937  11.290  1.00 20.00    +0.025 H 
ATOM     57 H57  LIG A   1      19.456  20.924   9.906  1.00 20.00    +0.025 H 
ATOM     58 H58  LIG A   1      21.232  20.003   8.247  1.00 20.00    +0.025 H 
ATOM     59 H59  LIG A   1      22.267  20.150   9.664  1.00 20.00    +0.025 H 
ATOM     60 H60  LIG A   1      22.253  18.650   8.757  1.00 20.00    +0.025 H 
ATOM     61 H61  LIG A   1      22.130  18.438  11.372  1.00 20.00    +0.031 H 
ATOM     62 H62  LIG A   1      20.583  18.421  12.168  1.00 20.00    +0.031 H 
ATOM     63 H63  LIG A   1      20.016  16.293  11.507  1.00 20.00    +0.060 H 
ATOM     64 H64  LIG A   1      21.883  16.331  12.768  1.00 20.00    +0.210 HD
ATOM     65 H65  LIG A   1      22.057  16.516   9.250  1.00 20.00    +0.031 H 
ATOM     66 H66  LIG A   1      21.093  15.108   9.579  1.00 20.00    +0.031 H 
ATOM     67 H67  LIG A   1      20.755  15.804   7.026  1.00 20.00    +0.025 H 
ATOM     68 H68  LIG A   1      19.567  17.035   6.620  1.00 20.00    +0.025 H 
ATOM     69 H69  LIG A   1      21.193  17.507   7.133  1.00 20.00    +0.025 H 
ATOM     70 H70  LIG A   1      18.994  14.810   8.571  1.00 20.00    +0.025 H 
ATOM     71 H71  LIG A   1      17.875  16.136   8.266  1.00 20.00    +0.025 H 
ATOM     72 H72  LIG A   1      18.343  15.739   9.925  1.00 20.00    +0.025 H 
ATOM     73 H73  LIG A   1      18.688  10.427   3.157  1.00 20.00    +0.023 H 
ATOM     74 H74  LIG A   1      16.973  10.797   3.052  1.00 20.00    +0.023 H 
ATOM     75 H75  LIG A   1      17.640  10.188   4.577  1.00 20.00    +0.023 H 
ATOM     76 H76  LIG A   1      18.392  12.842   3.264  1.00 20.00    +0.032 H 
ATOM     77 H77  LIG A   1      16.234  12.122   5.286  1.00 20.00    +0.032 H 
ATOM     78 H78  LIG A   1      16.084  13.017   3.790  1.00 20.00    +0.032 H 
ATOM     79 H79  LIG A   1      16.264  13.315   7.322  1.00 20.00    +0.063 H 
ATOM     80 H80  LIG A   1      17.284  15.108   8.631  1.00 20.00    +0.063 H 
ATOM     81 H81  LIG A   1      18.481  17.083   4.983  1.00 20.00    +0.063 H 
ATOM     82 H82  LIG A   1      17.375  15.346   3.678  1.00 20.00    +0.063 H 
ATOM     83 H83  LIG A   1      21.299  17.181   7.634  1.00 20.00    +0.072 H 
ATOM     84 H84  LIG A   1      22.184  13.252   6.842  1.00 20.00    +0.050 H 
ATOM     85 H85  LIG A   1      20.663  12.589   7.426  1.00 20.00    +0.050 H 
ATOM     86 H86  LIG A   1      22.021  15.077   8.604  1.00 20.00    +0.029 H 
ATOM     87 H87  LIG A   1      22.168  13.456   9.225  1.00 20.00    +0.029 H 
ATOM     88 H88  LIG A   1      19.376  14.539   8.885  1.00 20.00    +0.028 H 
ATOM     89 H89  LIG A   1      19.943  13.263   9.885  1.00 20.00    +0.028 H 
ATOM     90 H90  LIG A   1      21.086  14.799  11.357  1.00 20.00    +0.047 H 
ATOM     91 H91  LIG A   1      18.313  14.474  13.141  1.00 20.00    +0.296 HD
ATOM     92 H92  LIG A   1      22.283  16.567  11.907  1.00 20.00    +0.063 H 
ATOM     93 H93  LIG A   1      22.886  18.898  11.815  1.00 20.00    +0.064 H 
ATOM     94 H94  LIG A   1      20.820  21.405  10.056  1.00 20.00    +0.160 HD
ATOM     95 H95  LIG A   1      22.768  22.486  10.844  1.00 20.00    +0.049 H 
ATOM     96 H96  LIG A   1      23.407  20.987  11.477  1.00 20.00    +0.049 H 
ATOM     97 H97  LIG A   1      21.407  20.886  13.077  1.00 20.00    +0.030 H 
ATOM     98 H98  LIG A   1      20.832  22.408  12.401  1.00 20.00    +0.030 H 
ATOM     99 H99  LIG A   1      23.526  21.982  13.809  1.00 20.00    +0.043 H 
ATOM    100 H100 LIG A   1      22.981  23.512  13.098  1.00 20.00    +0.043 H 
ATOM    101 H101 LIG A   1      21.578  22.029  15.223  1.00 20.00    +0.122 HD
ATOM    102 H102 LIG A   1      23.798  23.585  15.545  1.00 20.00    +0.043 H 
ATOM    103 H103 LIG A   1      22.628  23.104  16.748  1.00 20.00    +0.043 H 
ATOM    104 H104 LIG A   1      22.753  25.485  16.849  1.00 20.00    +0.028 H 
ATOM    105 H105 LIG A   1      21.176  25.042  16.243  1.00 20.00    +0.028 H 
ATOM    106 H106 LIG A   1      21.981  26.960  15.018  1.00 20.00    +0.028 H 
ATOM    107 H107 LIG A   1      21.840  25.602  13.923  1.00 20.00    +0.028 H 
ATOM    108 H108 LIG A   1      23.871  26.845  13.431  1.00 20.00    +0.043 H 
ATOM    109 H109 LIG A   1      24.326  25.251  14.003  1.00 20.00    +0.043 H 
ATOM    110 H110 LIG A   1      24.762  26.207  16.155  1.00 20.00    +0.118 HD
ATOM    111 H111 LIG A   1      24.274  27.678  15.655  1.00 20.00    +0.118 HD
ATOM    112 H112 LIG A   1      19.676  19.645   9.061  1.00 20.00    +0.068 H 
ATOM    113 H113 LIG A   1      18.913  12.249   6.220  1.00 20.00    +0.057 H 
ATOM    114 H114 LIG A   1      21.176  11.533   5.500  1.00 20.00    +0.119 HD
ATOM    115 H115 LIG A   1      19.991  10.459   5.149  1.00 20.00    +0.119 HD
ENDROOT
TORSDOF 0
                                                                                                                      
ENDMDL
MODEL 6
REMARK VINA RESULT:   -10.994      2.600      4.452
REMARK INTER + INTRA:         -10.994
REMARK INTER:                 -10.994
REMARK INTRA:                   0.000
REMARK UNBOUND:                 0.000
ROOT
ATOM      1 C1   LIG A   1      22.080  18.662  10.567  1.00 20.00    -0.044 C 
ATOM      2 C2   LIG A   1      20.830  18.266   9.727  1.00 20.00    +0.047 C 
ATOM      3 C3   LIG A   1      19.649  18.116  10.718  1.00 20.00    -0.044 C 
ATOM      4 C4   LIG A   1      20.556  19.477   8.783  1.00 20.00    -0.006 C 
ATOM      5 C5   LIG A   1      20.081  19.089   7.383  1.00 20.00    +0.058 C 
ATOM      6 O6   LIG A   1      19.329  20.170   6.814  1.00 20.00    -0.393 OA
ATOM      7 C7   LIG A   1      19.228  17.835   7.419  1.00 20.00    -0.006 C 
ATOM      8 C8   LIG A   1      20.043  16.623   7.943  1.00 20.00    +0.047 C 
ATOM      9 C9   LIG A   1      19.023  15.580   8.473  1.00 20.00    -0.044 C 
ATOM     10 C10  LIG A   1      20.771  15.982   6.731  1.00 20.00    -0.044 C 
ATOM     11 N11  LIG A   1      21.097  17.075   8.892  1.00 20.00    -0.144 NA
ATOM     12 O12  LIG A   1      21.565  15.977   9.688  1.00 20.00    -0.120 OA
ATOM     13 C13  LIG A   1      17.631  10.394   3.372  1.00 20.00    -0.060 C 
ATOM     14 C14  LIG A   1      18.081  11.123   4.653  1.00 20.00    -0.016 C 
ATOM     15 C15  LIG A   1      19.636  10.947   4.740  1.00 20.00    -0.023 C 
ATOM     16 C16  LIG A   1      20.299  11.835   5.754  1.00 20.00    -0.048 A 
ATOM     17 C17  LIG A   1      21.010  12.960   5.327  1.00 20.00    -0.058 A 
ATOM     18 C18  LIG A   1      21.168  14.034   6.194  1.00 20.00    -0.051 A 
ATOM     19 C19  LIG A   1      20.556  13.995   7.449  1.00 20.00    +0.017 A 
ATOM     20 C20  LIG A   1      20.140  12.762   7.965  1.00 20.00    -0.051 A 
ATOM     21 C21  LIG A   1      20.024  11.669   7.113  1.00 20.00    -0.058 A 
ATOM     22 C22  LIG A   1      20.117  15.248   8.094  1.00 20.00    +0.140 C 
ATOM     23 C23  LIG A   1      18.820  15.470   8.408  1.00 20.00    +0.047 C 
ATOM     24 C24  LIG A   1      17.607  14.754   7.891  1.00 20.00    +0.256 C 
ATOM     25 O25  LIG A   1      16.569  14.824   8.544  1.00 20.00    -0.269 OA
ATOM     26 N26  LIG A   1      17.657  14.442   6.537  1.00 20.00    -0.278 NA
ATOM     27 C27  LIG A   1      17.212  15.503   5.619  1.00 20.00    +0.029 C 
ATOM     28 C28  LIG A   1      17.784  16.923   5.849  1.00 20.00    -0.034 C 
ATOM     29 C29  LIG A   1      19.258  17.030   5.448  1.00 20.00    -0.034 C 
ATOM     30 C30  LIG A   1      20.026  18.242   6.011  1.00 20.00    +0.085 C 
ATOM     31 C31  LIG A   1      21.399  18.282   5.352  1.00 20.00    +0.311 C 
ATOM     32 O32  LIG A   1      22.312  17.487   5.491  1.00 20.00    -0.252 OA
ATOM     33 O33  LIG A   1      21.538  19.325   4.504  1.00 20.00    -0.481 OA
ATOM     34 C34  LIG A   1      20.156  18.433   7.520  1.00 20.00    +0.009 A 
ATOM     35 C35  LIG A   1      19.748  19.678   8.037  1.00 20.00    -0.052 A 
ATOM     36 C36  LIG A   1      19.902  20.008   9.392  1.00 20.00    -0.038 A 
ATOM     37 C37  LIG A   1      20.511  19.132  10.288  1.00 20.00    +0.038 A 
ATOM     38 N38  LIG A   1      20.637  19.372  11.654  1.00 20.00    -0.385 NA
ATOM     39 C39  LIG A   1      20.552  20.712  12.224  1.00 20.00    +0.016 C 
ATOM     40 C40  LIG A   1      21.824  21.517  11.953  1.00 20.00    -0.023 C 
ATOM     41 C41  LIG A   1      21.732  22.902  12.596  1.00 20.00    -0.003 C 
ATOM     42 N42  LIG A   1      22.975  23.639  12.369  1.00 20.00    -0.317 NA
ATOM     43 C43  LIG A   1      22.942  24.985  12.946  1.00 20.00    -0.005 C 
ATOM     44 C44  LIG A   1      23.917  25.117  14.120  1.00 20.00    -0.039 C 
ATOM     45 C45  LIG A   1      23.563  24.300  15.369  1.00 20.00    -0.040 C 
ATOM     46 C46  LIG A   1      22.224  24.649  16.025  1.00 20.00    -0.008 C 
ATOM     47 N47  LIG A   1      22.160  26.028  16.499  1.00 20.00    -0.330 NA
ATOM     48 C48  LIG A   1      20.887  17.880   9.792  1.00 20.00    +0.004 A 
ATOM     49 C49  LIG A   1      20.706  17.525   8.443  1.00 20.00    +0.133 A 
ATOM     50 O50  LIG A   1      21.100  16.242   8.125  1.00 20.00    -0.456 OA
ATOM     51 C51  LIG A   1      17.407  13.094   6.239  1.00 20.00    +0.246 C 
ATOM     52 O52  LIG A   1      17.088  12.278   7.111  1.00 20.00    -0.273 OA
ATOM     53 C53  LIG A   1      17.562  12.618   4.741  1.00 20.00    +0.088 C 
ATOM     54 N54  LIG A   1      16.229  12.748   4.107  1.00 20.00    -0.320 NA
ATOM     55 H55  LIG A   1      21.933  19.636  11.049  1.00 20.00    +0.025 H 
ATOM     56 H56  LIG A   1      22.974  18.741   9.937  1.00 20.00    +0.025 H 
ATOM     57 H57  LIG A   1      22.290  17.942  11.367  1.00 20.00    +0.025 H 
ATOM     58 H58  LIG A   1      19.783  17.258  11.386  1.00 20.00    +0.025 H 
ATOM     59 H59  LIG A   1      19.565  19.005  11.355  1.00 20.00    +0.025 H 
ATOM     60 H60  LIG A   1      18.687  18.005  10.214  1.00 20.00    +0.025 H 
ATOM     61 H61  LIG A   1      19.830  20.161   9.244  1.00 20.00    +0.031 H 
ATOM     62 H62  LIG A   1      21.464  20.082   8.648  1.00 20.00    +0.031 H 
ATOM     63 H63  LIG A   1      20.945  18.932   6.727  1.00 20.00    +0.060 H 
ATOM     64 H64  LIG A   1      19.925  20.938   6.828  1.00 20.00    +0.210 HD
ATOM     65 H65  LIG A   1      18.345  18.028   8.042  1.00 20.00    +0.031 H 
ATOM     66 H66  LIG A   1      18.822  17.636   6.418  1.00 20.00    +0.031 H 
ATOM     67 H67  LIG A   1      18.255  15.376   7.715  1.00 20.00    +0.025 H 
ATOM     68 H68  LIG A   1      19.494  14.619   8.707  1.00 20.00    +0.025 H 
ATOM     69 H69  LIG A   1      18.504  15.926   9.371  1.00 20.00    +0.025 H 
ATOM     70 H70  LIG A   1      20.059  15.696   5.949  1.00 20.00    +0.025 H 
ATOM     71 H71  LIG A   1      21.315  15.073   7.015  1.00 20.00    +0.025 H 
ATOM     72 H72  LIG A   1      21.493  16.672   6.280  1.00 20.00    +0.025 H 
ATOM     73 H73  LIG A   1      16.543  10.269   3.341  1.00 20.00    +0.023 H 
ATOM     74 H74  LIG A   1      18.064   9.388   3.324  1.00 20.00    +0.023 H 
ATOM     75 H75  LIG A   1      17.947  10.940   2.475  1.00 20.00    +0.023 H 
ATOM     76 H76  LIG A   1      17.648  10.560   5.492  1.00 20.00    +0.032 H 
ATOM     77 H77  LIG A   1      20.080  11.133   3.754  1.00 20.00    +0.032 H 
ATOM     78 H78  LIG A   1      19.871   9.902   4.979  1.00 20.00    +0.032 H 
ATOM     79 H79  LIG A   1      21.320  13.068   4.291  1.00 20.00    +0.063 H 
ATOM     80 H80  LIG A   1      21.621  14.949   5.820  1.00 20.00    +0.063 H 
ATOM     81 H81  LIG A   1      19.728  12.685   8.970  1.00 20.00    +0.063 H 
ATOM     82 H82  LIG A   1      19.519  10.773   7.473  1.00 20.00    +0.063 H 
ATOM     83 H83  LIG A   1      18.518  16.361   8.949  1.00 20.00    +0.072 H 
ATOM     84 H84  LIG A   1      16.119  15.556   5.718  1.00 20.00    +0.050 H 
ATOM     85 H85  LIG A   1      17.423  15.215   4.587  1.00 20.00    +0.050 H 
ATOM     86 H86  LIG A   1      17.617  17.250   6.878  1.00 20.00    +0.029 H 
ATOM     87 H87  LIG A   1      17.214  17.625   5.225  1.00 20.00    +0.029 H 
ATOM     88 H88  LIG A   1      19.780  16.115   5.694  1.00 20.00    +0.028 H 
ATOM     89 H89  LIG A   1      19.300  17.070   4.351  1.00 20.00    +0.028 H 
ATOM     90 H90  LIG A   1      19.480  19.116   5.622  1.00 20.00    +0.047 H 
ATOM     91 H91  LIG A   1      22.460  19.239   4.179  1.00 20.00    +0.296 HD
ATOM     92 H92  LIG A   1      19.302  20.429   7.384  1.00 20.00    +0.063 H 
ATOM     93 H93  LIG A   1      19.539  20.978   9.718  1.00 20.00    +0.064 H 
ATOM     94 H94  LIG A   1      21.369  18.809  12.082  1.00 20.00    +0.160 HD
ATOM     95 H95  LIG A   1      20.430  20.598  13.308  1.00 20.00    +0.049 H 
ATOM     96 H96  LIG A   1      19.658  21.242  11.878  1.00 20.00    +0.049 H 
ATOM     97 H97  LIG A   1      21.985  21.620  10.873  1.00 20.00    +0.030 H 
ATOM     98 H98  LIG A   1      22.692  20.973  12.351  1.00 20.00    +0.030 H 
ATOM     99 H99  LIG A   1      20.883  23.446  12.167  1.00 20.00    +0.043 H 
ATOM    100 H100 LIG A   1      21.553  22.785  13.670  1.00 20.00    +0.043 H 
ATOM    101 H101 LIG A   1      23.138  23.710  11.364  1.00 20.00    +0.122 HD
ATOM    102 H102 LIG A   1      21.930  25.300  13.228  1.00 20.00    +0.043 H 
ATOM    103 H103 LIG A   1      23.264  25.690  12.170  1.00 20.00    +0.043 H 
ATOM    104 H104 LIG A   1      24.001  26.178  14.387  1.00 20.00    +0.028 H 
ATOM    105 H105 LIG A   1      24.920  24.818  13.787  1.00 20.00    +0.028 H 
ATOM    106 H106 LIG A   1      24.367  24.435  16.106  1.00 20.00    +0.028 H 
ATOM    107 H107 LIG A   1      23.564  23.232  15.121  1.00 20.00    +0.028 H 
ATOM    108 H108 LIG A   1      22.065  23.984  16.882  1.00 20.00    +0.043 H 
ATOM    109 H109 LIG A   1      21.391  24.472  15.338  1.00 20.00    +0.043 H 
ATOM    110 H110 LIG A   1      22.259  26.671  15.714  1.00 20.00    +0.118 HD
ATOM    111 H111 LIG A   1      22.951  26.212  17.116  1.00 20.00    +0.118 HD
ATOM    112 H112 LIG A   1      21.317  17.141  10.467  1.00 20.00    +0.068 H 
ATOM    113 H113 LIG A   1      18.268  13.271   4.216  1.00 20.00    +0.057 H 
ATOM    114 H114 LIG A   1      15.819  13.662   4.270  1.00 20.00    +0.119 HD
ATOM    115 H115 LIG A   1      16.305  12.625   3.100  1.00 20.00    +0.119 HD
ENDROOT
TORSDOF 0
                                                                                                                      
ENDMDL
MODEL 7
REMARK VINA RESULT:   -10.649      3.585     12.029
REMARK INTER + INTRA:         -10.649
REMARK INTER:                 -10.649
REMARK INTRA:                   0.000
REMARK UNBOUND:                 0.000
ROOT
ATOM      1 C1   LIG A   1      22.295  22.634   9.151  1.00 20.00    -0.044 C 
ATOM      2 C2   LIG A   1      21.244  23.205  10.148  1.00 20.00    +0.047 C 
ATOM      3 C3   LIG A   1      19.979  23.550   9.323  1.00 20.00    -0.044 C 
ATOM      4 C4   LIG A   1      20.915  22.037  11.128  1.00 20.00    -0.006 C 
ATOM      5 C5   LIG A   1      20.695  22.473  12.576  1.00 20.00    +0.058 C 
ATOM      6 O6   LIG A   1      19.867  21.512  13.247  1.00 20.00    -0.393 OA
ATOM      7 C7   LIG A   1      20.049  23.844  12.647  1.00 20.00    -0.006 C 
ATOM      8 C8   LIG A   1      20.965  24.923  12.011  1.00 20.00    +0.047 C 
ATOM      9 C9   LIG A   1      20.056  26.119  11.616  1.00 20.00    -0.044 C 
ATOM     10 C10  LIG A   1      21.937  25.427  13.111  1.00 20.00    -0.044 C 
ATOM     11 N11  LIG A   1      21.800  24.328  10.932  1.00 20.00    -0.144 NA
ATOM     12 O12  LIG A   1      22.323  25.353  10.075  1.00 20.00    -0.120 OA
ATOM     13 C13  LIG A   1      20.172  31.381  16.825  1.00 20.00    -0.060 C 
ATOM     14 C14  LIG A   1      20.330  30.611  15.500  1.00 20.00    -0.016 C 
ATOM     15 C15  LIG A   1      21.869  30.546  15.205  1.00 20.00    -0.023 C 
ATOM     16 C16  LIG A   1      22.246  29.581  14.117  1.00 20.00    -0.048 A 
ATOM     17 C17  LIG A   1      22.825  28.355  14.452  1.00 20.00    -0.058 A 
ATOM     18 C18  LIG A   1      22.698  27.282  13.578  1.00 20.00    -0.051 A 
ATOM     19 C19  LIG A   1      21.938  27.433  12.416  1.00 20.00    +0.017 A 
ATOM     20 C20  LIG A   1      21.653  28.723  11.952  1.00 20.00    -0.051 A 
ATOM     21 C21  LIG A   1      21.821  29.808  12.806  1.00 20.00    -0.058 A 
ATOM     22 C22  LIG A   1      21.229  26.272  11.843  1.00 20.00    +0.140 C 
ATOM     23 C23  LIG A   1      19.883  26.258  11.707  1.00 20.00    +0.047 C 
ATOM     24 C24  LIG A   1      18.876  27.144  12.376  1.00 20.00    +0.256 C 
ATOM     25 O25  LIG A   1      17.761  27.244  11.868  1.00 20.00    -0.269 OA
ATOM     26 N26  LIG A   1      19.153  27.424  13.710  1.00 20.00    -0.278 NA
ATOM     27 C27  LIG A   1      18.674  26.432  14.685  1.00 20.00    +0.029 C 
ATOM     28 C28  LIG A   1      18.984  24.943  14.390  1.00 20.00    -0.034 C 
ATOM     29 C29  LIG A   1      20.464  24.606  14.590  1.00 20.00    -0.034 C 
ATOM     30 C30  LIG A   1      20.954  23.298  13.938  1.00 20.00    +0.085 C 
ATOM     31 C31  LIG A   1      22.380  23.038  14.408  1.00 20.00    +0.311 C 
ATOM     32 O32  LIG A   1      23.378  23.685  14.143  1.00 20.00    -0.252 OA
ATOM     33 O33  LIG A   1      22.468  21.973  15.236  1.00 20.00    -0.481 OA
ATOM     34 C34  LIG A   1      20.851  23.111  12.426  1.00 20.00    +0.009 A 
ATOM     35 C35  LIG A   1      20.191  21.951  11.976  1.00 20.00    -0.052 A 
ATOM     36 C36  LIG A   1      20.111  21.621  10.614  1.00 20.00    -0.038 A 
ATOM     37 C37  LIG A   1      20.723  22.407   9.640  1.00 20.00    +0.038 A 
ATOM     38 N38  LIG A   1      20.629  22.170   8.271  1.00 20.00    -0.385 NA
ATOM     39 C39  LIG A   1      20.262  20.868   7.725  1.00 20.00    +0.016 C 
ATOM     40 C40  LIG A   1      21.419  19.873   7.829  1.00 20.00    -0.023 C 
ATOM     41 C41  LIG A   1      21.030  18.528   7.212  1.00 20.00    -0.003 C 
ATOM     42 N42  LIG A   1      22.163  17.605   7.276  1.00 20.00    -0.317 NA
ATOM     43 C43  LIG A   1      21.846  16.289   6.717  1.00 20.00    -0.005 C 
ATOM     44 C44  LIG A   1      22.624  16.025   5.424  1.00 20.00    -0.039 C 
ATOM     45 C45  LIG A   1      22.238  16.906   4.228  1.00 20.00    -0.040 C 
ATOM     46 C46  LIG A   1      20.785  16.776   3.759  1.00 20.00    -0.008 C 
ATOM     47 N47  LIG A   1      20.447  15.431   3.307  1.00 20.00    -0.330 NA
ATOM     48 C48  LIG A   1      21.351  23.579  10.073  1.00 20.00    +0.004 A 
ATOM     49 C49  LIG A   1      21.408  23.937  11.433  1.00 20.00    +0.133 A 
ATOM     50 O50  LIG A   1      22.034  25.139  11.687  1.00 20.00    -0.456 OA
ATOM     51 C51  LIG A   1      19.155  28.790  14.030  1.00 20.00    +0.246 C 
ATOM     52 O52  LIG A   1      18.853  29.659  13.204  1.00 20.00    -0.273 OA
ATOM     53 C53  LIG A   1      19.580  29.214  15.491  1.00 20.00    +0.088 C 
ATOM     54 N54  LIG A   1      18.338  29.283  16.298  1.00 20.00    -0.320 NA
ATOM     55 H55  LIG A   1      21.936  21.701   8.699  1.00 20.00    +0.025 H 
ATOM     56 H56  LIG A   1      23.242  22.409   9.656  1.00 20.00    +0.025 H 
ATOM     57 H57  LIG A   1      22.505  23.325   8.326  1.00 20.00    +0.025 H 
ATOM     58 H58  LIG A   1      20.154  24.386   8.637  1.00 20.00    +0.025 H 
ATOM     59 H59  LIG A   1      19.675  22.694   8.708  1.00 20.00    +0.025 H 
ATOM     60 H60  LIG A   1      19.121  23.800   9.950  1.00 20.00    +0.025 H 
ATOM     61 H61  LIG A   1      20.037  21.480  10.772  1.00 20.00    +0.031 H 
ATOM     62 H62  LIG A   1      21.727  21.297  11.143  1.00 20.00    +0.031 H 
ATOM     63 H63  LIG A   1      21.652  22.485  13.110  1.00 20.00    +0.060 H 
ATOM     64 H64  LIG A   1      20.330  20.662  13.158  1.00 20.00    +0.210 HD
ATOM     65 H65  LIG A   1      19.071  23.798  12.148  1.00 20.00    +0.031 H 
ATOM     66 H66  LIG A   1      19.816  24.088  13.691  1.00 20.00    +0.031 H 
ATOM     67 H67  LIG A   1      19.437  26.427  12.468  1.00 20.00    +0.025 H 
ATOM     68 H68  LIG A   1      20.635  26.999  11.315  1.00 20.00    +0.025 H 
ATOM     69 H69  LIG A   1      19.376  25.870  10.797  1.00 20.00    +0.025 H 
ATOM     70 H70  LIG A   1      21.388  25.807  13.979  1.00 20.00    +0.025 H 
ATOM     71 H71  LIG A   1      22.572  26.245  12.751  1.00 20.00    +0.025 H 
ATOM     72 H72  LIG A   1      22.597  24.627  13.466  1.00 20.00    +0.025 H 
ATOM     73 H73  LIG A   1      19.131  31.672  17.001  1.00 20.00    +0.023 H 
ATOM     74 H74  LIG A   1      20.758  32.308  16.809  1.00 20.00    +0.023 H 
ATOM     75 H75  LIG A   1      20.517  30.780  17.675  1.00 20.00    +0.023 H 
ATOM     76 H76  LIG A   1      19.882  31.246  14.723  1.00 20.00    +0.032 H 
ATOM     77 H77  LIG A   1      22.405  30.279  16.124  1.00 20.00    +0.032 H 
ATOM     78 H78  LIG A   1      22.228  31.546  14.931  1.00 20.00    +0.032 H 
ATOM     79 H79  LIG A   1      23.250  28.185  15.438  1.00 20.00    +0.063 H 
ATOM     80 H80  LIG A   1      23.050  26.303  13.894  1.00 20.00    +0.063 H 
ATOM     81 H81  LIG A   1      21.128  28.877  11.011  1.00 20.00    +0.063 H 
ATOM     82 H82  LIG A   1      21.418  30.776  12.511  1.00 20.00    +0.063 H 
ATOM     83 H83  LIG A   1      19.378  25.431  11.216  1.00 20.00    +0.072 H 
ATOM     84 H84  LIG A   1      17.584  26.549  14.734  1.00 20.00    +0.050 H 
ATOM     85 H85  LIG A   1      19.063  26.668  15.678  1.00 20.00    +0.050 H 
ATOM     86 H86  LIG A   1      18.634  24.662  13.394  1.00 20.00    +0.029 H 
ATOM     87 H87  LIG A   1      18.401  24.329  15.088  1.00 20.00    +0.029 H 
ATOM     88 H88  LIG A   1      21.084  25.433  14.272  1.00 20.00    +0.028 H 
ATOM     89 H89  LIG A   1      20.645  24.543  15.673  1.00 20.00    +0.028 H 
ATOM     90 H90  LIG A   1      20.337  22.513  14.402  1.00 20.00    +0.047 H 
ATOM     91 H91  LIG A   1      23.427  21.911  15.434  1.00 20.00    +0.296 HD
ATOM     92 H92  LIG A   1      19.725  21.269  12.687  1.00 20.00    +0.063 H 
ATOM     93 H93  LIG A   1      19.562  20.724  10.346  1.00 20.00    +0.064 H 
ATOM     94 H94  LIG A   1      21.375  22.620   7.745  1.00 20.00    +0.160 HD
ATOM     95 H95  LIG A   1      20.016  21.015   6.667  1.00 20.00    +0.049 H 
ATOM     96 H96  LIG A   1      19.351  20.477   8.191  1.00 20.00    +0.049 H 
ATOM     97 H97  LIG A   1      21.705  19.730   8.878  1.00 20.00    +0.030 H 
ATOM     98 H98  LIG A   1      22.300  20.282   7.315  1.00 20.00    +0.030 H 
ATOM     99 H99  LIG A   1      20.172  18.115   7.754  1.00 20.00    +0.043 H 
ATOM    100 H100 LIG A   1      20.730  18.687   6.171  1.00 20.00    +0.043 H 
ATOM    101 H101 LIG A   1      22.444  17.495   8.251  1.00 20.00    +0.122 HD
ATOM    102 H102 LIG A   1      20.769  16.138   6.574  1.00 20.00    +0.043 H 
ATOM    103 H103 LIG A   1      22.155  15.531   7.447  1.00 20.00    +0.043 H 
ATOM    104 H104 LIG A   1      22.507  14.968   5.155  1.00 20.00    +0.028 H 
ATOM    105 H105 LIG A   1      23.697  16.161   5.618  1.00 20.00    +0.028 H 
ATOM    106 H106 LIG A   1      22.906  16.659   3.391  1.00 20.00    +0.028 H 
ATOM    107 H107 LIG A   1      22.437  17.957   4.468  1.00 20.00    +0.028 H 
ATOM    108 H108 LIG A   1      20.619  17.470   2.927  1.00 20.00    +0.043 H 
ATOM    109 H109 LIG A   1      20.089  17.070   4.550  1.00 20.00    +0.043 H 
ATOM    110 H110 LIG A   1      20.549  14.768   4.074  1.00 20.00    +0.118 HD
ATOM    111 H111 LIG A   1      21.111  15.136   2.591  1.00 20.00    +0.118 HD
ATOM    112 H112 LIG A   1      21.796  24.252   9.343  1.00 20.00    +0.068 H 
ATOM    113 H113 LIG A   1      20.239  28.453  15.921  1.00 20.00    +0.057 H 
ATOM    114 H114 LIG A   1      17.774  28.444  16.197  1.00 20.00    +0.119 HD
ATOM    115 H115 LIG A   1      18.566  29.377  17.286  1.00 20.00    +0.119 HD
ENDROOT
TORSDOF 0
                                                                                                                      
ENDMDL
MODEL 8
REMARK VINA RESULT:   -10.520      2.027      4.526
REMARK INTER + INTRA:         -10.520
REMARK INTER:                 -10.520
REMARK INTRA:                   0.000
REMARK UNBOUND:                 0.000
ROOT
ATOM      1 C1   LIG A   1      21.784  22.249  12.529  1.00 20.00    -0.044 C 
ATOM      2 C2   LIG A   1      20.994  21.620  11.344  1.00 20.00    +0.047 C 
ATOM      3 C3   LIG A   1      19.590  21.250  11.883  1.00 20.00    -0.044 C 
ATOM      4 C4   LIG A   1      20.855  22.754  10.282  1.00 20.00    -0.006 C 
ATOM      5 C5   LIG A   1      20.971  22.277   8.834  1.00 20.00    +0.058 C 
ATOM      6 O6   LIG A   1      20.283  23.194   7.970  1.00 20.00    -0.393 OA
ATOM      7 C7   LIG A   1      20.396  20.884   8.664  1.00 20.00    -0.006 C 
ATOM      8 C8   LIG A   1      21.180  19.851   9.517  1.00 20.00    +0.047 C 
ATOM      9 C9   LIG A   1      20.242  18.634   9.738  1.00 20.00    -0.044 C 
ATOM     10 C10  LIG A   1      22.384  19.357   8.671  1.00 20.00    -0.044 C 
ATOM     11 N11  LIG A   1      21.741  20.499  10.734  1.00 20.00    -0.144 NA
ATOM     12 O12  LIG A   1      22.092  19.512  11.714  1.00 20.00    -0.120 OA
ATOM     13 C13  LIG A   1      21.649  13.264   4.838  1.00 20.00    -0.060 C 
ATOM     14 C14  LIG A   1      21.490  14.069   6.142  1.00 20.00    -0.016 C 
ATOM     15 C15  LIG A   1      22.924  14.192   6.764  1.00 20.00    -0.023 C 
ATOM     16 C16  LIG A   1      23.025  15.194   7.879  1.00 20.00    -0.048 A 
ATOM     17 C17  LIG A   1      23.628  16.432   7.643  1.00 20.00    -0.058 A 
ATOM     18 C18  LIG A   1      23.282  17.519   8.436  1.00 20.00    -0.051 A 
ATOM     19 C19  LIG A   1      22.290  17.368   9.408  1.00 20.00    +0.017 A 
ATOM     20 C20  LIG A   1      21.948  16.080   9.836  1.00 20.00    -0.051 A 
ATOM     21 C21  LIG A   1      22.330  14.982   9.072  1.00 20.00    -0.058 A 
ATOM     22 C22  LIG A   1      21.440  18.517   9.778  1.00 20.00    +0.140 C 
ATOM     23 C23  LIG A   1      20.097  18.488   9.616  1.00 20.00    +0.047 C 
ATOM     24 C24  LIG A   1      19.287  17.552   8.769  1.00 20.00    +0.256 C 
ATOM     25 O25  LIG A   1      18.092  17.426   9.024  1.00 20.00    -0.269 OA
ATOM     26 N26  LIG A   1      19.857  17.252   7.537  1.00 20.00    -0.278 NA
ATOM     27 C27  LIG A   1      19.577  18.205   6.452  1.00 20.00    +0.029 C 
ATOM     28 C28  LIG A   1      19.771  19.709   6.764  1.00 20.00    -0.034 C 
ATOM     29 C29  LIG A   1      21.249  20.093   6.882  1.00 20.00    -0.034 C 
ATOM     30 C30  LIG A   1      21.546  21.432   7.586  1.00 20.00    +0.085 C 
ATOM     31 C31  LIG A   1      23.032  21.730   7.432  1.00 20.00    +0.311 C 
ATOM     32 O32  LIG A   1      23.966  21.124   7.928  1.00 20.00    -0.252 OA
ATOM     33 O33  LIG A   1      23.269  22.779   6.612  1.00 20.00    -0.481 OA
ATOM     34 C34  LIG A   1      21.109  21.648   9.033  1.00 20.00    +0.009 A 
ATOM     35 C35  LIG A   1      20.333  22.795   9.294  1.00 20.00    -0.052 A 
ATOM     36 C36  LIG A   1      19.946  23.152  10.595  1.00 20.00    -0.038 A 
ATOM     37 C37  LIG A   1      20.353  22.411  11.702  1.00 20.00    +0.038 A 
ATOM     38 N38  LIG A   1      19.953  22.675  13.010  1.00 20.00    -0.385 NA
ATOM     39 C39  LIG A   1      19.439  23.975  13.424  1.00 20.00    +0.016 C 
ATOM     40 C40  LIG A   1      20.561  25.007  13.546  1.00 20.00    -0.023 C 
ATOM     41 C41  LIG A   1      20.008  26.351  14.023  1.00 20.00    -0.003 C 
ATOM     42 N42  LIG A   1      21.100  27.311  14.182  1.00 20.00    -0.317 NA
ATOM     43 C43  LIG A   1      20.631  28.627  14.619  1.00 20.00    -0.005 C 
ATOM     44 C44  LIG A   1      21.098  28.947  16.042  1.00 20.00    -0.039 C 
ATOM     45 C45  LIG A   1      20.484  28.081  17.150  1.00 20.00    -0.040 C 
ATOM     46 C46  LIG A   1      18.961  28.171  17.286  1.00 20.00    -0.008 C 
ATOM     47 N47  LIG A   1      18.493  29.513  17.614  1.00 20.00    -0.330 NA
ATOM     48 C48  LIG A   1      21.093  21.252  11.451  1.00 20.00    +0.004 A 
ATOM     49 C49  LIG A   1      21.457  20.865  10.148  1.00 20.00    +0.133 A 
ATOM     50 O50  LIG A   1      22.158  19.679  10.073  1.00 20.00    -0.456 OA
ATOM     51 C51  LIG A   1      19.970  15.880   7.265  1.00 20.00    +0.246 C 
ATOM     52 O52  LIG A   1      19.518  15.020   8.031  1.00 20.00    -0.273 OA
ATOM     53 C53  LIG A   1      20.716  15.438   5.945  1.00 20.00    +0.088 C 
ATOM     54 N54  LIG A   1      19.684  15.309   4.889  1.00 20.00    -0.320 NA
ATOM     55 H55  LIG A   1      21.308  23.179  12.865  1.00 20.00    +0.025 H 
ATOM     56 H56  LIG A   1      22.812  22.495  12.237  1.00 20.00    +0.025 H 
ATOM     57 H57  LIG A   1      21.829  21.584  13.400  1.00 20.00    +0.025 H 
ATOM     58 H58  LIG A   1      19.634  20.435  12.614  1.00 20.00    +0.025 H 
ATOM     59 H59  LIG A   1      19.134  22.109  12.391  1.00 20.00    +0.025 H 
ATOM     60 H60  LIG A   1      18.898  20.956  11.091  1.00 20.00    +0.025 H 
ATOM     61 H61  LIG A   1      19.905  23.288  10.421  1.00 20.00    +0.031 H 
ATOM     62 H62  LIG A   1      21.630  23.520  10.423  1.00 20.00    +0.031 H 
ATOM     63 H63  LIG A   1      22.022  22.286   8.523  1.00 20.00    +0.060 H 
ATOM     64 H64  LIG A   1      20.691  24.061   8.134  1.00 20.00    +0.210 HD
ATOM     65 H65  LIG A   1      19.332  20.907   8.936  1.00 20.00    +0.031 H 
ATOM     66 H66  LIG A   1      20.404  20.609   7.601  1.00 20.00    +0.031 H 
ATOM     67 H67  LIG A   1      19.833  18.286   8.781  1.00 20.00    +0.025 H 
ATOM     68 H68  LIG A   1      20.766  17.782  10.184  1.00 20.00    +0.025 H 
ATOM     69 H69  LIG A   1      19.391  18.878  10.381  1.00 20.00    +0.025 H 
ATOM     70 H70  LIG A   1      22.050  18.938   7.715  1.00 20.00    +0.025 H 
ATOM     71 H71  LIG A   1      22.948  18.570   9.185  1.00 20.00    +0.025 H 
ATOM     72 H72  LIG A   1      23.083  20.171   8.445  1.00 20.00    +0.025 H 
ATOM     73 H73  LIG A   1      20.680  12.933   4.447  1.00 20.00    +0.023 H 
ATOM     74 H74  LIG A   1      22.243  12.358   5.009  1.00 20.00    +0.023 H 
ATOM     75 H75  LIG A   1      22.155  13.856   4.066  1.00 20.00    +0.023 H 
ATOM     76 H76  LIG A   1      20.901  13.435   6.820  1.00 20.00    +0.032 H 
ATOM     77 H77  LIG A   1      23.641  14.457   5.977  1.00 20.00    +0.032 H 
ATOM     78 H78  LIG A   1      23.243  13.212   7.139  1.00 20.00    +0.032 H 
ATOM     79 H79  LIG A   1      24.254  16.594   6.769  1.00 20.00    +0.063 H 
ATOM     80 H80  LIG A   1      23.667  18.503   8.176  1.00 20.00    +0.063 H 
ATOM     81 H81  LIG A   1      21.234  15.929  10.644  1.00 20.00    +0.063 H 
ATOM     82 H82  LIG A   1      21.900  14.008   9.300  1.00 20.00    +0.063 H 
ATOM     83 H83  LIG A   1      19.473  19.307   9.960  1.00 20.00    +0.072 H 
ATOM     84 H84  LIG A   1      18.527  18.050   6.169  1.00 20.00    +0.050 H 
ATOM     85 H85  LIG A   1      20.180  17.960   5.575  1.00 20.00    +0.050 H 
ATOM     86 H86  LIG A   1      19.204  20.001   7.650  1.00 20.00    +0.029 H 
ATOM     87 H87  LIG A   1      19.338  20.287   5.937  1.00 20.00    +0.029 H 
ATOM     88 H88  LIG A   1      21.807  19.296   7.352  1.00 20.00    +0.028 H 
ATOM     89 H89  LIG A   1      21.661  20.138   5.863  1.00 20.00    +0.028 H 
ATOM     90 H90  LIG A   1      21.023  22.184   6.976  1.00 20.00    +0.047 H 
ATOM     91 H91  LIG A   1      24.246  22.869   6.627  1.00 20.00    +0.296 HD
ATOM     92 H92  LIG A   1      20.015  23.444   8.478  1.00 20.00    +0.063 H 
ATOM     93 H93  LIG A   1      19.326  24.036  10.710  1.00 20.00    +0.064 H 
ATOM     94 H94  LIG A   1      20.578  22.263  13.699  1.00 20.00    +0.160 HD
ATOM     95 H95  LIG A   1      18.970  23.843  14.407  1.00 20.00    +0.049 H 
ATOM     96 H96  LIG A   1      18.641  24.324  12.759  1.00 20.00    +0.049 H 
ATOM     97 H97  LIG A   1      21.066  25.135  12.581  1.00 20.00    +0.030 H 
ATOM     98 H98  LIG A   1      21.319  24.640  14.252  1.00 20.00    +0.030 H 
ATOM     99 H99  LIG A   1      19.278  26.722  13.295  1.00 20.00    +0.043 H 
ATOM    100 H100 LIG A   1      19.491  26.206  14.978  1.00 20.00    +0.043 H 
ATOM    101 H101 LIG A   1      21.585  27.409  13.289  1.00 20.00    +0.122 HD
ATOM    102 H102 LIG A   1      19.545  28.745  14.518  1.00 20.00    +0.043 H 
ATOM    103 H103 LIG A   1      21.070  29.379  13.952  1.00 20.00    +0.043 H 
ATOM    104 H104 LIG A   1      20.894  30.005  16.248  1.00 20.00    +0.028 H 
ATOM    105 H105 LIG A   1      22.190  28.843  16.091  1.00 20.00    +0.028 H 
ATOM    106 H106 LIG A   1      20.945  28.369  18.105  1.00 20.00    +0.028 H 
ATOM    107 H107 LIG A   1      20.761  27.032  16.991  1.00 20.00    +0.028 H 
ATOM    108 H108 LIG A   1      18.637  27.490  18.081  1.00 20.00    +0.043 H 
ATOM    109 H109 LIG A   1      18.464  27.836  16.371  1.00 20.00    +0.043 H 
ATOM    110 H110 LIG A   1      18.742  30.161  16.868  1.00 20.00    +0.118 HD
ATOM    111 H111 LIG A   1      18.976  29.847  18.449  1.00 20.00    +0.118 HD
ATOM    112 H112 LIG A   1      21.386  20.610  12.281  1.00 20.00    +0.068 H 
ATOM    113 H113 LIG A   1      21.432  16.212   5.648  1.00 20.00    +0.057 H 
ATOM    114 H114 LIG A   1      19.088  16.129   4.839  1.00 20.00    +0.119 HD
ATOM    115 H115 LIG A   1      20.126  15.200   3.978  1.00 20.00    +0.119 HD
ENDROOT
TORSDOF 0
                                                                                                                      
ENDMDL
MODEL 9
REMARK VINA RESULT:   -10.471      3.087     11.049
REMARK INTER + INTRA:         -10.471
REMARK INTER:                 -10.471
REMARK INTRA:                   0.000
REMARK UNBOUND:                 0.000
ROOT
ATOM      1 C1   LIG A   1      20.557  20.880   8.215  1.00 20.00    -0.044 C 
ATOM      2 C2   LIG A   1      20.612  21.192   9.739  1.00 20.00    +0.047 C 
ATOM      3 C3   LIG A   1      19.205  20.891  10.312  1.00 20.00    -0.044 C 
ATOM      4 C4   LIG A   1      21.638  20.182  10.340  1.00 20.00    -0.006 C 
ATOM      5 C5   LIG A   1      22.512  20.760  11.452  1.00 20.00    +0.058 C 
ATOM      6 O6   LIG A   1      22.971  19.699  12.303  1.00 20.00    -0.393 OA
ATOM      7 C7   LIG A   1      21.754  21.784  12.274  1.00 20.00    -0.006 C 
ATOM      8 C8   LIG A   1      21.324  22.992  11.399  1.00 20.00    +0.047 C 
ATOM      9 C9   LIG A   1      20.130  23.675  12.117  1.00 20.00    -0.044 C 
ATOM     10 C10  LIG A   1      22.498  24.008  11.386  1.00 20.00    -0.044 C 
ATOM     11 N11  LIG A   1      21.106  22.563   9.990  1.00 20.00    -0.144 NA
ATOM     12 O12  LIG A   1      20.325  23.536   9.282  1.00 20.00    -0.120 OA
ATOM     13 C13  LIG A   1      22.407  29.455  16.149  1.00 20.00    -0.060 C 
ATOM     14 C14  LIG A   1      21.718  28.572  15.091  1.00 20.00    -0.016 C 
ATOM     15 C15  LIG A   1      22.279  29.028  13.700  1.00 20.00    -0.023 C 
ATOM     16 C16  LIG A   1      21.956  28.091  12.570  1.00 20.00    -0.048 A 
ATOM     17 C17  LIG A   1      22.950  27.247  12.068  1.00 20.00    -0.058 A 
ATOM     18 C18  LIG A   1      22.582  26.064  11.438  1.00 20.00    -0.051 A 
ATOM     19 C19  LIG A   1      21.232  25.712  11.379  1.00 20.00    +0.017 A 
ATOM     20 C20  LIG A   1      20.261  26.700  11.588  1.00 20.00    -0.051 A 
ATOM     21 C21  LIG A   1      20.629  27.905  12.176  1.00 20.00    -0.058 A 
ATOM     22 C22  LIG A   1      20.841  24.289  11.363  1.00 20.00    +0.140 C 
ATOM     23 C23  LIG A   1      20.065  23.755  12.335  1.00 20.00    +0.047 C 
ATOM     24 C24  LIG A   1      19.771  24.312  13.695  1.00 20.00    +0.256 C 
ATOM     25 O25  LIG A   1      18.776  23.900  14.288  1.00 20.00    -0.269 OA
ATOM     26 N26  LIG A   1      20.859  24.910  14.320  1.00 20.00    -0.278 NA
ATOM     27 C27  LIG A   1      21.744  24.004  15.069  1.00 20.00    +0.029 C 
ATOM     28 C28  LIG A   1      22.200  22.708  14.355  1.00 20.00    -0.034 C 
ATOM     29 C29  LIG A   1      23.220  22.982  13.246  1.00 20.00    -0.034 C 
ATOM     30 C30  LIG A   1      23.420  21.853  12.217  1.00 20.00    +0.085 C 
ATOM     31 C31  LIG A   1      24.598  22.227  11.325  1.00 20.00    +0.311 C 
ATOM     32 O32  LIG A   1      24.657  23.137  10.516  1.00 20.00    -0.252 OA
ATOM     33 O33  LIG A   1      25.676  21.437  11.530  1.00 20.00    -0.481 OA
ATOM     34 C34  LIG A   1      22.244  21.373  11.369  1.00 20.00    +0.009 A 
ATOM     35 C35  LIG A   1      21.975  19.991  11.388  1.00 20.00    -0.052 A 
ATOM     36 C36  LIG A   1      20.980  19.414  10.583  1.00 20.00    -0.038 A 
ATOM     37 C37  LIG A   1      20.238  20.181   9.688  1.00 20.00    +0.038 A 
ATOM     38 N38  LIG A   1      19.196  19.683   8.908  1.00 20.00    -0.385 NA
ATOM     39 C39  LIG A   1      19.050  18.263   8.612  1.00 20.00    +0.016 C 
ATOM     40 C40  LIG A   1      20.067  17.801   7.568  1.00 20.00    -0.023 C 
ATOM     41 C41  LIG A   1      19.868  16.320   7.240  1.00 20.00    -0.003 C 
ATOM     42 N42  LIG A   1      20.816  15.908   6.205  1.00 20.00    -0.317 NA
ATOM     43 C43  LIG A   1      20.689  14.491   5.860  1.00 20.00    -0.005 C 
ATOM     44 C44  LIG A   1      20.154  14.304   4.438  1.00 20.00    -0.039 C 
ATOM     45 C45  LIG A   1      18.703  14.749   4.212  1.00 20.00    -0.040 C 
ATOM     46 C46  LIG A   1      17.653  14.010   5.047  1.00 20.00    -0.008 C 
ATOM     47 N47  LIG A   1      17.609  12.578   4.776  1.00 20.00    -0.330 NA
ATOM     48 C48  LIG A   1      20.473  21.559   9.686  1.00 20.00    +0.004 A 
ATOM     49 C49  LIG A   1      21.445  22.152  10.514  1.00 20.00    +0.133 A 
ATOM     50 O50  LIG A   1      21.527  23.525  10.414  1.00 20.00    -0.456 OA
ATOM     51 C51  LIG A   1      20.624  26.214  14.780  1.00 20.00    +0.246 C 
ATOM     52 O52  LIG A   1      19.510  26.746  14.705  1.00 20.00    -0.273 OA
ATOM     53 C53  LIG A   1      21.836  27.021  15.393  1.00 20.00    +0.088 C 
ATOM     54 N54  LIG A   1      21.825  26.770  16.854  1.00 20.00    -0.320 NA
ATOM     55 H55  LIG A   1      20.356  19.815   8.042  1.00 20.00    +0.025 H 
ATOM     56 H56  LIG A   1      21.510  21.115   7.726  1.00 20.00    +0.025 H 
ATOM     57 H57  LIG A   1      19.766  21.439   7.703  1.00 20.00    +0.025 H 
ATOM     58 H58  LIG A   1      18.453  21.595   9.940  1.00 20.00    +0.025 H 
ATOM     59 H59  LIG A   1      18.875  19.888  10.017  1.00 20.00    +0.025 H 
ATOM     60 H60  LIG A   1      19.180  20.916  11.404  1.00 20.00    +0.025 H 
ATOM     61 H61  LIG A   1      21.118  19.287  10.706  1.00 20.00    +0.031 H 
ATOM     62 H62  LIG A   1      22.322  19.811   9.564  1.00 20.00    +0.031 H 
ATOM     63 H63  LIG A   1      23.409  21.221  11.019  1.00 20.00    +0.060 H 
ATOM     64 H64  LIG A   1      23.438  19.079  11.717  1.00 20.00    +0.210 HD
ATOM     65 H65  LIG A   1      20.888  21.292  12.737  1.00 20.00    +0.031 H 
ATOM     66 H66  LIG A   1      22.373  22.109  13.121  1.00 20.00    +0.031 H 
ATOM     67 H67  LIG A   1      20.380  23.882  13.166  1.00 20.00    +0.025 H 
ATOM     68 H68  LIG A   1      19.868  24.638  11.664  1.00 20.00    +0.025 H 
ATOM     69 H69  LIG A   1      19.234  23.050  12.119  1.00 20.00    +0.025 H 
ATOM     70 H70  LIG A   1      22.771  24.309  12.404  1.00 20.00    +0.025 H 
ATOM     71 H71  LIG A   1      22.239  24.923  10.841  1.00 20.00    +0.025 H 
ATOM     72 H72  LIG A   1      23.395  23.586  10.918  1.00 20.00    +0.025 H 
ATOM     73 H73  LIG A   1      21.919  29.368  17.126  1.00 20.00    +0.023 H 
ATOM     74 H74  LIG A   1      22.355  30.513  15.867  1.00 20.00    +0.023 H 
ATOM     75 H75  LIG A   1      23.465  29.188  16.259  1.00 20.00    +0.023 H 
ATOM     76 H76  LIG A   1      20.653  28.846  15.112  1.00 20.00    +0.032 H 
ATOM     77 H77  LIG A   1      23.368  29.148  13.767  1.00 20.00    +0.032 H 
ATOM     78 H78  LIG A   1      21.884  30.023  13.457  1.00 20.00    +0.032 H 
ATOM     79 H79  LIG A   1      24.000  27.427  12.282  1.00 20.00    +0.063 H 
ATOM     80 H80  LIG A   1      23.358  25.358  11.152  1.00 20.00    +0.063 H 
ATOM     81 H81  LIG A   1      19.202  26.477  11.475  1.00 20.00    +0.063 H 
ATOM     82 H82  LIG A   1      19.848  28.586  12.512  1.00 20.00    +0.063 H 
ATOM     83 H83  LIG A   1      19.722  22.727  12.275  1.00 20.00    +0.072 H 
ATOM     84 H84  LIG A   1      21.195  23.717  15.976  1.00 20.00    +0.050 H 
ATOM     85 H85  LIG A   1      22.636  24.542  15.397  1.00 20.00    +0.050 H 
ATOM     86 H86  LIG A   1      21.341  22.143  13.986  1.00 20.00    +0.029 H 
ATOM     87 H87  LIG A   1      22.678  22.059  15.100  1.00 20.00    +0.029 H 
ATOM     88 H88  LIG A   1      22.983  23.908  12.739  1.00 20.00    +0.028 H 
ATOM     89 H89  LIG A   1      24.186  23.187  13.729  1.00 20.00    +0.028 H 
ATOM     90 H90  LIG A   1      23.758  20.993  12.815  1.00 20.00    +0.047 H 
ATOM     91 H91  LIG A   1      26.334  21.771  10.883  1.00 20.00    +0.296 HD
ATOM     92 H92  LIG A   1      22.546  19.325  12.035  1.00 20.00    +0.063 H 
ATOM     93 H93  LIG A   1      20.815  18.345  10.675  1.00 20.00    +0.064 H 
ATOM     94 H94  LIG A   1      18.994  20.274   8.104  1.00 20.00    +0.160 HD
ATOM     95 H95  LIG A   1      18.039  18.115   8.212  1.00 20.00    +0.049 H 
ATOM     96 H96  LIG A   1      19.100  17.654   9.522  1.00 20.00    +0.049 H 
ATOM     97 H97  LIG A   1      21.088  17.966   7.934  1.00 20.00    +0.030 H 
ATOM     98 H98  LIG A   1      19.956  18.406   6.658  1.00 20.00    +0.030 H 
ATOM     99 H99  LIG A   1      20.013  15.724   8.149  1.00 20.00    +0.043 H 
ATOM    100 H100 LIG A   1      18.840  16.166   6.894  1.00 20.00    +0.043 H 
ATOM    101 H101 LIG A   1      21.765  16.087   6.537  1.00 20.00    +0.122 HD
ATOM    102 H102 LIG A   1      20.092  13.929   6.589  1.00 20.00    +0.043 H 
ATOM    103 H103 LIG A   1      21.690  14.045   5.897  1.00 20.00    +0.043 H 
ATOM    104 H104 LIG A   1      20.262  13.249   4.159  1.00 20.00    +0.028 H 
ATOM    105 H105 LIG A   1      20.795  14.859   3.739  1.00 20.00    +0.028 H 
ATOM    106 H106 LIG A   1      18.467  14.620   3.147  1.00 20.00    +0.028 H 
ATOM    107 H107 LIG A   1      18.615  15.824   4.408  1.00 20.00    +0.028 H 
ATOM    108 H108 LIG A   1      16.665  14.432   4.827  1.00 20.00    +0.043 H 
ATOM    109 H109 LIG A   1      17.822  14.163   6.117  1.00 20.00    +0.043 H 
ATOM    110 H110 LIG A   1      18.502  12.149   5.015  1.00 20.00    +0.118 HD
ATOM    111 H111 LIG A   1      17.483  12.425   3.775  1.00 20.00    +0.118 HD
ATOM    112 H112 LIG A   1      19.879  22.206   9.043  1.00 20.00    +0.068 H 
ATOM    113 H113 LIG A   1      22.777  26.647  14.977  1.00 20.00    +0.057 H 
ATOM    114 H114 LIG A   1      21.764  25.780  17.069  1.00 20.00    +0.119 HD
ATOM    115 H115 LIG A   1      22.684  27.118  17.276  1.00 20.00    +0.119 HD
ENDROOT
TORSDOF 0
                                                                                                                      
ENDMDL
