MODEL 1
REMARK VINA RESULT:   -11.524      0.000      0.000
REMARK INTER + INTRA:         -11.524
REMARK INTER:                 -11.524
REMARK INTRA:                   0.000
REMARK UNBOUND:                 0.000
ROOT
ATOM      1 C1   LIG A   1      22.860  14.429   7.049  1.00 20.00    -0.060 C 
ATOM      2 C2   LIG A   1      22.536  15.282   8.290  1.00 20.00    -0.016 C 
ATOM      3 C3   LIG A   1      23.913  15.702   8.913  1.00 20.00    -0.023 C 
ATOM      4 C4   LIG A   1      23.809  16.766   9.968  1.00 20.00    -0.048 A 
ATOM      5 C5   LIG A   1      24.196  18.075   9.667  1.00 20.00    -0.058 A 
ATOM      6 C6   LIG A   1      23.646  19.128  10.387  1.00 20.00    -0.051 A 
ATOM      7 C7   LIG A   1      22.669  18.861  11.349  1.00 20.00    +0.017 A 
ATOM      8 C8   LIG A   1      22.544  17.560  11.849  1.00 20.00    -0.051 A 
ATOM      9 C9   LIG A   1      23.131  16.503  11.159  1.00 20.00    -0.058 A 
ATOM     10 C10  LIG A   1      21.620  19.862  11.635  1.00 20.00    +0.140 C 
ATOM     11 C11  LIG A   1      20.309  19.590  11.450  1.00 20.00    +0.047 C 
ATOM     12 C12  LIG A   1      19.698  18.483  10.646  1.00 20.00    +0.256 C 
ATOM     13 O13  LIG A   1      18.535  18.162  10.886  1.00 20.00    -0.269 OA
ATOM     14 N14  LIG A   1      20.348  18.214   9.448  1.00 20.00    -0.278 NA
ATOM     15 C15  LIG A   1      19.945  19.040   8.299  1.00 20.00    +0.029 C 
ATOM     16 C16  LIG A   1      19.864  20.570   8.522  1.00 20.00    -0.034 C 
ATOM     17 C17  LIG A   1      21.249  21.215   8.649  1.00 20.00    -0.034 C 
ATOM     18 C18  LIG A   1      21.288  22.621   9.279  1.00 20.00    +0.085 C 
ATOM     19 C19  LIG A   1      22.706  23.161   9.133  1.00 20.00    +0.311 C 
ATOM     20 O20  LIG A   1      23.709  22.784   9.714  1.00 20.00    -0.252 OA
ATOM     21 O21  LIG A   1      22.795  24.141   8.205  1.00 20.00    -0.481 OA
ATOM     22 C22  LIG A   1      20.778  22.839  10.700  1.00 20.00    +0.009 A 
ATOM     23 C23  LIG A   1      19.811  23.849  10.875  1.00 20.00    -0.052 A 
ATOM     24 C24  LIG A   1      19.327  24.209  12.143  1.00 20.00    -0.038 A 
ATOM     25 C25  LIG A   1      19.819  23.611  13.302  1.00 20.00    +0.038 A 
ATOM     26 N26  LIG A   1      19.340  23.878  14.582  1.00 20.00    -0.385 NA
ATOM     27 C27  LIG A   1      18.610  25.097  14.907  1.00 20.00    +0.016 C 
ATOM     28 C28  LIG A   1      19.544  26.305  14.984  1.00 20.00    -0.023 C 
ATOM     29 C29  LIG A   1      18.772  27.562  15.386  1.00 20.00    -0.003 C 
ATOM     30 N30  LIG A   1      19.695  28.691  15.508  1.00 20.00    -0.317 NA
ATOM     31 C31  LIG A   1      19.015  29.939  15.859  1.00 20.00    -0.005 C 
ATOM     32 C32  LIG A   1      19.379  30.396  17.275  1.00 20.00    -0.039 C 
ATOM     33 C33  LIG A   1      18.865  29.504  18.411  1.00 20.00    -0.040 C 
ATOM     34 C34  LIG A   1      17.341  29.371  18.502  1.00 20.00    -0.008 C 
ATOM     35 N35  LIG A   1      16.670  30.640  18.762  1.00 20.00    -0.330 NA
ATOM     36 C36  LIG A   1      20.755  22.585  13.138  1.00 20.00    +0.004 A 
ATOM     37 C37  LIG A   1      21.220  22.194  11.869  1.00 20.00    +0.133 A 
ATOM     38 O38  LIG A   1      22.117  21.145  11.885  1.00 20.00    -0.456 OA
ATOM     39 C39  LIG A   1      20.698  16.867   9.267  1.00 20.00    +0.246 C 
ATOM     40 O40  LIG A   1      20.380  15.991  10.081  1.00 20.00    -0.273 OA
ATOM     41 C41  LIG A   1      21.542  16.479   7.990  1.00 20.00    +0.088 C 
ATOM     42 N42  LIG A   1      20.573  16.105   6.934  1.00 20.00    -0.320 NA
ATOM     43 N43  LIG A   1      21.282  20.563   8.935  1.00 20.00    -0.287 NA
ATOM     44 C44  LIG A   1      21.533  19.674   9.844  1.00 20.00    +0.110 C 
ATOM     45 N45  LIG A   1      21.472  18.358   9.497  1.00 20.00    -0.386 NA
ATOM     46 C46  LIG A   1      21.911  20.081  11.267  1.00 20.00    +0.075 C 
ATOM     47 N47  LIG A   1      21.067  21.183  11.670  1.00 20.00    -0.348 NA
ATOM     48 C48  LIG A   1      21.381  21.967  12.759  1.00 20.00    +0.237 C 
ATOM     49 O49  LIG A   1      22.441  21.872  13.370  1.00 20.00    -0.273 OA
ATOM     50 C50  LIG A   1      20.246  22.920  13.172  1.00 20.00    +0.087 C 
ATOM     51 C51  LIG A   1      20.729  24.215  13.817  1.00 20.00    -0.027 C 
ATOM     52 C52  LIG A   1      19.958  25.322  13.110  1.00 20.00    -0.039 C 
ATOM     53 C53  LIG A   1      18.825  24.600  12.409  1.00 20.00    -0.004 C 
ATOM     54 N54  LIG A   1      19.431  23.330  11.993  1.00 20.00    -0.306 NA
ATOM     55 H55  LIG A   1      21.970  13.913   6.673  1.00 20.00    +0.023 H 
ATOM     56 H56  LIG A   1      23.595  13.654   7.291  1.00 20.00    +0.023 H 
ATOM     57 H57  LIG A   1      23.273  15.045   6.243  1.00 20.00    +0.023 H 
ATOM     58 H58  LIG A   1      22.053  14.605   9.008  1.00 20.00    +0.032 H 
ATOM     59 H59  LIG A   1      24.582  16.048   8.114  1.00 20.00    +0.032 H 
ATOM     60 H60  LIG A   1      24.401  14.819   9.348  1.00 20.00    +0.032 H 
ATOM     61 H61  LIG A   1      24.810  18.293   8.798  1.00 20.00    +0.063 H 
ATOM     62 H62  LIG A   1      23.863  20.147  10.078  1.00 20.00    +0.063 H 
ATOM     63 H63  LIG A   1      21.843  17.331  12.652  1.00 20.00    +0.063 H 
ATOM     64 H64  LIG A   1      22.871  15.484  11.440  1.00 20.00    +0.063 H 
ATOM     65 H65  LIG A   1      19.542  20.305  11.737  1.00 20.00    +0.072 H 
ATOM     66 H66  LIG A   1      18.950  18.687   8.000  1.00 20.00    +0.050 H 
ATOM     67 H67  LIG A   1      20.613  18.855   7.454  1.00 20.00    +0.050 H 
ATOM     68 H68  LIG A   1      19.224  20.808   9.376  1.00 20.00    +0.029 H 
ATOM     69 H69  LIG A   1      19.366  21.016   7.652  1.00 20.00    +0.029 H 
ATOM     70 H70  LIG A   1      21.921  20.553   9.176  1.00 20.00    +0.028 H 
ATOM     71 H71  LIG A   1      21.677  21.275   7.638  1.00 20.00    +0.028 H 
ATOM     72 H72  LIG A   1      20.662  23.237   8.615  1.00 20.00    +0.047 H 
ATOM     73 H73  LIG A   1      23.743  24.394   8.228  1.00 20.00    +0.296 HD
ATOM     74 H74  LIG A   1      19.412  24.388  10.016  1.00 20.00    +0.063 H 
ATOM     75 H75  LIG A   1      18.564  24.978  12.192  1.00 20.00    +0.064 H 
ATOM     76 H76  LIG A   1      19.995  23.604  15.311  1.00 20.00    +0.160 HD
ATOM     77 H77  LIG A   1      18.141  24.946  15.887  1.00 20.00    +0.049 H 
ATOM     78 H78  LIG A   1      17.784  25.271  14.207  1.00 20.00    +0.049 H 
ATOM     79 H79  LIG A   1      20.036  26.466  14.018  1.00 20.00    +0.030 H 
ATOM     80 H80  LIG A   1      20.341  26.106  15.713  1.00 20.00    +0.030 H 
ATOM     81 H81  LIG A   1      18.008  27.777  14.629  1.00 20.00    +0.043 H 
ATOM     82 H82  LIG A   1      18.265  27.383  16.340  1.00 20.00    +0.043 H 
ATOM     83 H83  LIG A   1      20.185  28.815  14.621  1.00 20.00    +0.122 HD
ATOM     84 H84  LIG A   1      17.928  29.882  15.725  1.00 20.00    +0.043 H 
ATOM     85 H85  LIG A   1      19.356  30.714  15.162  1.00 20.00    +0.043 H 
ATOM     86 H86  LIG A   1      19.010  31.420  17.416  1.00 20.00    +0.028 H 
ATOM     87 H87  LIG A   1      20.471  30.464  17.361  1.00 20.00    +0.028 H 
ATOM     88 H88  LIG A   1      19.243  29.905  19.361  1.00 20.00    +0.028 H 
ATOM     89 H89  LIG A   1      19.299  28.501  18.316  1.00 20.00    +0.028 H 
ATOM     90 H90  LIG A   1      17.096  28.682  19.318  1.00 20.00    +0.043 H 
ATOM     91 H91  LIG A   1      16.930  28.930  17.590  1.00 20.00    +0.043 H 
ATOM     92 H92  LIG A   1      16.865  31.299  18.011  1.00 20.00    +0.118 HD
ATOM     93 H93  LIG A   1      17.052  31.059  19.608  1.00 20.00    +0.118 HD
ATOM     94 H94  LIG A   1      21.127  22.053  14.011  1.00 20.00    +0.068 H 
ATOM     95 H95  LIG A   1      22.120  17.345   7.651  1.00 20.00    +0.057 H 
ATOM     96 H96  LIG A   1      19.841  16.801   6.823  1.00 20.00    +0.119 HD
ATOM     97 H97  LIG A   1      21.048  16.018   6.038  1.00 20.00    +0.119 HD
ATOM     98 H98  LIG A   1      21.375  21.496   9.361  1.00 20.00    +0.189 HD
ATOM     99 H99  LIG A   1      21.442  18.237   8.489  1.00 20.00    +0.157 HD
ATOM    100 H100 LIG A   1      22.122  17.732   9.957  1.00 20.00    +0.157 HD
ATOM    101 H101 LIG A   1      21.754  19.248  11.960  1.00 20.00    +0.058 H 
ATOM    102 H102 LIG A   1      22.962  20.384  11.290  1.00 20.00    +0.058 H 
ATOM    103 H103 LIG A   1      20.093  21.198  11.371  1.00 20.00    +0.163 HD
ATOM    104 H104 LIG A   1      19.602  22.368  13.869  1.00 20.00    +0.057 H 
ATOM    105 H105 LIG A   1      20.485  24.213  14.887  1.00 20.00    +0.029 H 
ATOM    106 H106 LIG A   1      21.807  24.382  13.721  1.00 20.00    +0.029 H 
ATOM    107 H107 LIG A   1      20.608  25.811  12.374  1.00 20.00    +0.028 H 
ATOM    108 H108 LIG A   1      19.599  26.086  13.806  1.00 20.00    +0.028 H 
ATOM    109 H109 LIG A   1      17.991  24.409  13.095  1.00 20.00    +0.043 H 
ATOM    110 H110 LIG A   1      18.441  25.162  11.553  1.00 20.00    +0.043 H 
ATOM    111 H111 LIG A   1      20.080  23.538  11.230  1.00 20.00    +0.123 HD
ENDROOT
TORSDOF 0
                                                                                                                  
ENDMDL
MODEL 2
REMARK VINA RESULT:   -11.420      2.068      2.874
REMARK INTER + INTRA:         -11.420
REMARK INTER:                 -11.420
REMARK INTRA:                   0.000
REMARK UNBOUND:                 0.000
ROOT
ATOM      1 C1   LIG A   1      24.972  17.160   8.944  1.00 20.00    -0.060 C 
ATOM      2 C2   LIG A   1      24.119  17.843  10.031  1.00 20.00    -0.016 C 
ATOM      3 C3   LIG A   1      25.115  18.317  11.146  1.00 20.00    -0.023 C 
ATOM      4 C4   LIG A   1      24.507  19.249  12.155  1.00 20.00    -0.048 A 
ATOM      5 C5   LIG A   1      24.811  20.612  12.106  1.00 20.00    -0.058 A 
ATOM      6 C6   LIG A   1      23.912  21.528  12.638  1.00 20.00    -0.051 A 
ATOM      7 C7   LIG A   1      22.694  21.072  13.150  1.00 20.00    +0.017 A 
ATOM      8 C8   LIG A   1      22.559  19.719  13.480  1.00 20.00    -0.051 A 
ATOM      9 C9   LIG A   1      23.482  18.800  12.989  1.00 20.00    -0.058 A 
ATOM     10 C10  LIG A   1      21.498  21.937  13.092  1.00 20.00    +0.140 C 
ATOM     11 C11  LIG A   1      20.387  21.569  12.416  1.00 20.00    +0.047 C 
ATOM     12 C12  LIG A   1      20.250  20.503  11.371  1.00 20.00    +0.256 C 
ATOM     13 O13  LIG A   1      19.128  20.054  11.141  1.00 20.00    -0.269 OA
ATOM     14 N14  LIG A   1      21.316  20.423  10.485  1.00 20.00    -0.278 NA
ATOM     15 C15  LIG A   1      21.257  21.328   9.326  1.00 20.00    +0.029 C 
ATOM     16 C16  LIG A   1      20.912  22.812   9.603  1.00 20.00    -0.034 C 
ATOM     17 C17  LIG A   1      22.066  23.562  10.277  1.00 20.00    -0.034 C 
ATOM     18 C18  LIG A   1      21.701  24.891  10.967  1.00 20.00    +0.085 C 
ATOM     19 C19  LIG A   1      22.997  25.570  11.394  1.00 20.00    +0.311 C 
ATOM     20 O20  LIG A   1      23.762  25.225  12.279  1.00 20.00    -0.252 OA
ATOM     21 O21  LIG A   1      23.294  26.648  10.632  1.00 20.00    -0.481 OA
ATOM     22 C22  LIG A   1      20.689  24.909  12.109  1.00 20.00    +0.009 A 
ATOM     23 C23  LIG A   1      19.608  25.803  11.980  1.00 20.00    -0.052 A 
ATOM     24 C24  LIG A   1      18.658  25.979  12.998  1.00 20.00    -0.038 A 
ATOM     25 C25  LIG A   1      18.768  25.308  14.215  1.00 20.00    +0.038 A 
ATOM     26 N26  LIG A   1      17.830  25.393  15.241  1.00 20.00    -0.385 NA
ATOM     27 C27  LIG A   1      16.887  26.499  15.351  1.00 20.00    +0.016 C 
ATOM     28 C28  LIG A   1      17.573  27.771  15.849  1.00 20.00    -0.023 C 
ATOM     29 C29  LIG A   1      16.559  28.903  16.018  1.00 20.00    -0.003 C 
ATOM     30 N30  LIG A   1      17.228  30.091  16.547  1.00 20.00    -0.317 NA
ATOM     31 C31  LIG A   1      16.319  31.227  16.703  1.00 20.00    -0.005 C 
ATOM     32 C32  LIG A   1      16.087  31.562  18.180  1.00 20.00    -0.039 C 
ATOM     33 C33  LIG A   1      15.312  30.510  18.982  1.00 20.00    -0.040 C 
ATOM     34 C34  LIG A   1      13.887  30.231  18.493  1.00 20.00    -0.008 C 
ATOM     35 N35  LIG A   1      13.016  31.399  18.569  1.00 20.00    -0.330 NA
ATOM     36 C36  LIG A   1      19.819  24.395  14.342  1.00 20.00    +0.004 A 
ATOM     37 C37  LIG A   1      20.756  24.185  13.313  1.00 20.00    +0.133 A 
ATOM     38 O38  LIG A   1      21.708  23.227  13.592  1.00 20.00    -0.456 OA
ATOM     39 C39  LIG A   1      21.872  19.141  10.358  1.00 20.00    +0.246 C 
ATOM     40 O40  LIG A   1      21.392  18.158  10.937  1.00 20.00    -0.273 OA
ATOM     41 C41  LIG A   1      23.161  18.970   9.463  1.00 20.00    +0.088 C 
ATOM     42 N42  LIG A   1      22.693  18.625   8.100  1.00 20.00    -0.320 NA
ATOM     43 N43  LIG A   1      22.074  22.889  10.511  1.00 20.00    -0.287 NA
ATOM     44 C44  LIG A   1      22.088  21.935  11.387  1.00 20.00    +0.110 C 
ATOM     45 N45  LIG A   1      22.319  20.664  10.957  1.00 20.00    -0.386 NA
ATOM     46 C46  LIG A   1      21.873  22.220  12.872  1.00 20.00    +0.075 C 
ATOM     47 N47  LIG A   1      20.811  23.191  13.006  1.00 20.00    -0.348 NA
ATOM     48 C48  LIG A   1      20.611  23.880  14.183  1.00 20.00    +0.237 C 
ATOM     49 O49  LIG A   1      21.382  23.817  15.135  1.00 20.00    -0.273 OA
ATOM     50 C50  LIG A   1      19.295  24.676  14.207  1.00 20.00    +0.087 C 
ATOM     51 C51  LIG A   1      19.348  25.934  15.069  1.00 20.00    -0.027 C 
ATOM     52 C52  LIG A   1      18.754  27.035  14.201  1.00 20.00    -0.039 C 
ATOM     53 C53  LIG A   1      18.049  26.292  13.084  1.00 20.00    -0.004 C 
ATOM     54 N54  LIG A   1      18.917  25.135  12.840  1.00 20.00    -0.306 NA
ATOM     55 H55  LIG A   1      24.350  16.609   8.233  1.00 20.00    +0.023 H 
ATOM     56 H56  LIG A   1      25.661  16.434   9.390  1.00 20.00    +0.023 H 
ATOM     57 H57  LIG A   1      25.569  17.894   8.392  1.00 20.00    +0.023 H 
ATOM     58 H58  LIG A   1      23.497  17.052  10.471  1.00 20.00    +0.032 H 
ATOM     59 H59  LIG A   1      25.979  18.806  10.677  1.00 20.00    +0.032 H 
ATOM     60 H60  LIG A   1      25.518  17.441  11.671  1.00 20.00    +0.032 H 
ATOM     61 H61  LIG A   1      25.666  20.976  11.543  1.00 20.00    +0.063 H 
ATOM     62 H62  LIG A   1      24.098  22.590  12.499  1.00 20.00    +0.063 H 
ATOM     63 H63  LIG A   1      21.650  19.343  13.949  1.00 20.00    +0.063 H 
ATOM     64 H64  LIG A   1      23.266  17.737  13.086  1.00 20.00    +0.063 H 
ATOM     65 H65  LIG A   1      19.486  22.177  12.445  1.00 20.00    +0.072 H 
ATOM     66 H66  LIG A   1      20.489  20.920   8.657  1.00 20.00    +0.050 H 
ATOM     67 H67  LIG A   1      22.202  21.295   8.779  1.00 20.00    +0.050 H 
ATOM     68 H68  LIG A   1      19.983  22.898  10.173  1.00 20.00    +0.029 H 
ATOM     69 H69  LIG A   1      20.711  23.301   8.641  1.00 20.00    +0.029 H 
ATOM     70 H70  LIG A   1      22.579  22.912  10.971  1.00 20.00    +0.028 H 
ATOM     71 H71  LIG A   1      22.820  23.768   9.503  1.00 20.00    +0.028 H 
ATOM     72 H72  LIG A   1      21.286  25.515  10.161  1.00 20.00    +0.047 H 
ATOM     73 H73  LIG A   1      24.130  26.981  11.021  1.00 20.00    +0.296 HD
ATOM     74 H74  LIG A   1      19.483  26.391  11.071  1.00 20.00    +0.063 H 
ATOM     75 H75  LIG A   1      17.840  26.666  12.812  1.00 20.00    +0.064 H 
ATOM     76 H76  LIG A   1      18.206  25.102  16.141  1.00 20.00    +0.160 HD
ATOM     77 H77  LIG A   1      16.118  26.202  16.075  1.00 20.00    +0.049 H 
ATOM     78 H78  LIG A   1      16.355  26.671  14.408  1.00 20.00    +0.049 H 
ATOM     79 H79  LIG A   1      18.357  28.078  15.147  1.00 20.00    +0.030 H 
ATOM     80 H80  LIG A   1      18.071  27.569  16.807  1.00 20.00    +0.030 H 
ATOM     81 H81  LIG A   1      16.100  29.127  15.047  1.00 20.00    +0.043 H 
ATOM     82 H82  LIG A   1      15.768  28.577  16.701  1.00 20.00    +0.043 H 
ATOM     83 H83  LIG A   1      17.986  30.353  15.916  1.00 20.00    +0.122 HD
ATOM     84 H84  LIG A   1      15.370  31.087  16.171  1.00 20.00    +0.043 H 
ATOM     85 H85  LIG A   1      16.790  32.101  16.235  1.00 20.00    +0.043 H 
ATOM     86 H86  LIG A   1      15.568  32.527  18.241  1.00 20.00    +0.028 H 
ATOM     87 H87  LIG A   1      17.057  31.719  18.669  1.00 20.00    +0.028 H 
ATOM     88 H88  LIG A   1      15.269  30.841  20.029  1.00 20.00    +0.028 H 
ATOM     89 H89  LIG A   1      15.872  29.568  18.989  1.00 20.00    +0.028 H 
ATOM     90 H90  LIG A   1      13.451  29.440  19.112  1.00 20.00    +0.043 H 
ATOM     91 H91  LIG A   1      13.891  29.854  17.467  1.00 20.00    +0.043 H 
ATOM     92 H92  LIG A   1      13.386  32.150  17.988  1.00 20.00    +0.118 HD
ATOM     93 H93  LIG A   1      13.012  31.758  19.522  1.00 20.00    +0.118 HD
ATOM     94 H94  LIG A   1      19.913  23.808  15.254  1.00 20.00    +0.068 H 
ATOM     95 H95  LIG A   1      23.711  19.916   9.420  1.00 20.00    +0.057 H 
ATOM     96 H96  LIG A   1      21.971  19.259   7.773  1.00 20.00    +0.119 HD
ATOM     97 H97  LIG A   1      23.466  18.677   7.441  1.00 20.00    +0.119 HD
ATOM     98 H98  LIG A   1      21.891  23.776  11.001  1.00 20.00    +0.189 HD
ATOM     99 H99  LIG A   1      22.671  20.648  10.004  1.00 20.00    +0.157 HD
ATOM    100 H100 LIG A   1      22.831  20.053  11.583  1.00 20.00    +0.157 HD
ATOM    101 H101 LIG A   1      21.581  21.307  13.402  1.00 20.00    +0.058 H 
ATOM    102 H102 LIG A   1      22.799  22.613  13.304  1.00 20.00    +0.058 H 
ATOM    103 H103 LIG A   1      20.017  23.150  12.369  1.00 20.00    +0.163 HD
ATOM    104 H104 LIG A   1      18.517  23.997  14.577  1.00 20.00    +0.057 H 
ATOM    105 H105 LIG A   1      18.736  25.795  15.969  1.00 20.00    +0.029 H 
ATOM    106 H106 LIG A   1      20.359  26.207  15.392  1.00 20.00    +0.029 H 
ATOM    107 H107 LIG A   1      19.560  27.657  13.792  1.00 20.00    +0.028 H 
ATOM    108 H108 LIG A   1      18.077  27.685  14.763  1.00 20.00    +0.028 H 
ATOM    109 H109 LIG A   1      17.054  25.954  13.398  1.00 20.00    +0.043 H 
ATOM    110 H110 LIG A   1      17.934  26.906  12.186  1.00 20.00    +0.043 H 
ATOM    111 H111 LIG A   1      19.767  25.481  12.387  1.00 20.00    +0.123 HD
ENDROOT
TORSDOF 0
                                                                                                                  
ENDMDL
MODEL 3
REMARK VINA RESULT:   -11.350      2.425      3.852
REMARK INTER + INTRA:         -11.350
REMARK INTER:                 -11.350
REMARK INTRA:                   0.000
REMARK UNBOUND:                 0.000
ROOT
ATOM      1 C1   LIG A   1      23.619  18.351   5.544  1.00 20.00    -0.060 C 
ATOM      2 C2   LIG A   1      22.574  19.171   6.325  1.00 20.00    -0.016 C 
ATOM      3 C3   LIG A   1      21.952  18.201   7.389  1.00 20.00    -0.023 C 
ATOM      4 C4   LIG A   1      21.116  18.890   8.430  1.00 20.00    -0.048 A 
ATOM      5 C5   LIG A   1      21.622  19.059   9.721  1.00 20.00    -0.058 A 
ATOM      6 C6   LIG A   1      21.141  20.097  10.510  1.00 20.00    -0.051 A 
ATOM      7 C7   LIG A   1      20.209  20.988   9.970  1.00 20.00    +0.017 A 
ATOM      8 C8   LIG A   1      19.492  20.615   8.828  1.00 20.00    -0.051 A 
ATOM      9 C9   LIG A   1      19.941  19.547   8.058  1.00 20.00    -0.058 A 
ATOM     10 C10  LIG A   1      20.175  22.391  10.433  1.00 20.00    +0.140 C 
ATOM     11 C11  LIG A   1      20.390  23.424   9.589  1.00 20.00    +0.047 C 
ATOM     12 C12  LIG A   1      21.018  23.391   8.228  1.00 20.00    +0.256 C 
ATOM     13 O13  LIG A   1      20.798  24.328   7.462  1.00 20.00    -0.269 OA
ATOM     14 N14  LIG A   1      22.105  22.532   8.115  1.00 20.00    -0.278 NA
ATOM     15 C15  LIG A   1      23.407  23.089   8.515  1.00 20.00    +0.029 C 
ATOM     16 C16  LIG A   1      23.469  23.842   9.867  1.00 20.00    -0.034 C 
ATOM     17 C17  LIG A   1      23.374  22.894  11.067  1.00 20.00    -0.034 C 
ATOM     18 C18  LIG A   1      23.007  23.542  12.417  1.00 20.00    +0.085 C 
ATOM     19 C19  LIG A   1      23.159  22.483  13.502  1.00 20.00    +0.311 C 
ATOM     20 O20  LIG A   1      22.457  21.503  13.689  1.00 20.00    -0.252 OA
ATOM     21 O21  LIG A   1      24.241  22.694  14.286  1.00 20.00    -0.481 OA
ATOM     22 C22  LIG A   1      21.684  24.284  12.576  1.00 20.00    +0.009 A 
ATOM     23 C23  LIG A   1      21.755  25.602  13.069  1.00 20.00    -0.052 A 
ATOM     24 C24  LIG A   1      20.606  26.359  13.345  1.00 20.00    -0.038 A 
ATOM     25 C25  LIG A   1      19.330  25.822  13.188  1.00 20.00    +0.038 A 
ATOM     26 N26  LIG A   1      18.151  26.538  13.386  1.00 20.00    -0.385 NA
ATOM     27 C27  LIG A   1      18.099  27.754  14.188  1.00 20.00    +0.016 C 
ATOM     28 C28  LIG A   1      18.182  27.442  15.683  1.00 20.00    -0.023 C 
ATOM     29 C29  LIG A   1      18.063  28.721  16.512  1.00 20.00    -0.003 C 
ATOM     30 N30  LIG A   1      18.089  28.392  17.937  1.00 20.00    -0.317 NA
ATOM     31 C31  LIG A   1      18.012  29.578  18.790  1.00 20.00    -0.005 C 
ATOM     32 C32  LIG A   1      16.682  29.639  19.548  1.00 20.00    -0.039 C 
ATOM     33 C33  LIG A   1      15.438  29.874  18.682  1.00 20.00    -0.040 C 
ATOM     34 C34  LIG A   1      15.421  31.194  17.904  1.00 20.00    -0.008 C 
ATOM     35 N35  LIG A   1      15.437  32.369  18.768  1.00 20.00    -0.330 NA
ATOM     36 C36  LIG A   1      19.247  24.527  12.670  1.00 20.00    +0.004 A 
ATOM     37 C37  LIG A   1      20.392  23.772  12.357  1.00 20.00    +0.133 A 
ATOM     38 O38  LIG A   1      20.131  22.526  11.825  1.00 20.00    -0.456 OA
ATOM     39 C39  LIG A   1      22.017  21.622   7.051  1.00 20.00    +0.246 C 
ATOM     40 O40  LIG A   1      21.080  21.645   6.243  1.00 20.00    -0.273 OA
ATOM     41 C41  LIG A   1      23.148  20.529   6.907  1.00 20.00    +0.088 C 
ATOM     42 N42  LIG A   1      24.178  21.094   6.005  1.00 20.00    -0.320 NA
ATOM     43 N43  LIG A   1      22.974  22.626  10.542  1.00 20.00    -0.287 NA
ATOM     44 C44  LIG A   1      21.905  22.146   9.987  1.00 20.00    +0.110 C 
ATOM     45 N45  LIG A   1      22.012  21.595   8.746  1.00 20.00    -0.386 NA
ATOM     46 C46  LIG A   1      20.558  22.174  10.707  1.00 20.00    +0.075 C 
ATOM     47 N47  LIG A   1      20.414  23.453  11.366  1.00 20.00    -0.348 NA
ATOM     48 C48  LIG A   1      19.467  23.652  12.347  1.00 20.00    +0.237 C 
ATOM     49 O49  LIG A   1      18.784  22.746  12.813  1.00 20.00    -0.273 OA
ATOM     50 C50  LIG A   1      19.305  25.129  12.746  1.00 20.00    +0.087 C 
ATOM     51 C51  LIG A   1      18.875  25.335  14.195  1.00 20.00    -0.027 C 
ATOM     52 C52  LIG A   1      19.818  26.400  14.741  1.00 20.00    -0.039 C 
ATOM     53 C53  LIG A   1      20.447  27.012  13.505  1.00 20.00    -0.004 C 
ATOM     54 N54  LIG A   1      20.588  25.873  12.591  1.00 20.00    -0.306 NA
ATOM     55 H55  LIG A   1      23.950  18.876   4.643  1.00 20.00    +0.023 H 
ATOM     56 H56  LIG A   1      23.195  17.396   5.214  1.00 20.00    +0.023 H 
ATOM     57 H57  LIG A   1      24.494  18.133   6.164  1.00 20.00    +0.023 H 
ATOM     58 H58  LIG A   1      21.778  19.413   5.607  1.00 20.00    +0.032 H 
ATOM     59 H59  LIG A   1      22.757  17.642   7.885  1.00 20.00    +0.032 H 
ATOM     60 H60  LIG A   1      21.335  17.449   6.881  1.00 20.00    +0.032 H 
ATOM     61 H61  LIG A   1      22.477  18.484  10.069  1.00 20.00    +0.063 H 
ATOM     62 H62  LIG A   1      21.615  20.294  11.467  1.00 20.00    +0.063 H 
ATOM     63 H63  LIG A   1      18.707  21.253   8.424  1.00 20.00    +0.063 H 
ATOM     64 H64  LIG A   1      19.498  19.384   7.077  1.00 20.00    +0.063 H 
ATOM     65 H65  LIG A   1      20.286  24.453   9.923  1.00 20.00    +0.072 H 
ATOM     66 H66  LIG A   1      23.699  23.789   7.722  1.00 20.00    +0.050 H 
ATOM     67 H67  LIG A   1      24.161  22.297   8.532  1.00 20.00    +0.050 H 
ATOM     68 H68  LIG A   1      22.714  24.631   9.910  1.00 20.00    +0.029 H 
ATOM     69 H69  LIG A   1      24.436  24.359   9.924  1.00 20.00    +0.029 H 
ATOM     70 H70  LIG A   1      22.695  22.083  10.848  1.00 20.00    +0.028 H 
ATOM     71 H71  LIG A   1      24.350  22.399  11.173  1.00 20.00    +0.028 H 
ATOM     72 H72  LIG A   1      23.809  24.274  12.597  1.00 20.00    +0.047 H 
ATOM     73 H73  LIG A   1      24.204  21.956  14.931  1.00 20.00    +0.296 HD
ATOM     74 H74  LIG A   1      22.721  26.071  13.254  1.00 20.00    +0.063 H 
ATOM     75 H75  LIG A   1      20.744  27.376  13.697  1.00 20.00    +0.064 H 
ATOM     76 H76  LIG A   1      17.345  25.934  13.531  1.00 20.00    +0.160 HD
ATOM     77 H77  LIG A   1      17.139  28.242  13.980  1.00 20.00    +0.049 H 
ATOM     78 H78  LIG A   1      18.868  28.472  13.884  1.00 20.00    +0.049 H 
ATOM     79 H79  LIG A   1      19.128  26.939  15.913  1.00 20.00    +0.030 H 
ATOM     80 H80  LIG A   1      17.380  26.743  15.957  1.00 20.00    +0.030 H 
ATOM     81 H81  LIG A   1      18.893  29.394  16.262  1.00 20.00    +0.043 H 
ATOM     82 H82  LIG A   1      17.126  29.228  16.257  1.00 20.00    +0.043 H 
ATOM     83 H83  LIG A   1      18.951  27.886  18.144  1.00 20.00    +0.122 HD
ATOM     84 H84  LIG A   1      18.202  30.509  18.242  1.00 20.00    +0.043 H 
ATOM     85 H85  LIG A   1      18.815  29.508  19.535  1.00 20.00    +0.043 H 
ATOM     86 H86  LIG A   1      16.752  30.424  20.312  1.00 20.00    +0.028 H 
ATOM     87 H87  LIG A   1      16.541  28.702  20.102  1.00 20.00    +0.028 H 
ATOM     88 H88  LIG A   1      14.555  29.834  19.333  1.00 20.00    +0.028 H 
ATOM     89 H89  LIG A   1      15.323  29.046  17.972  1.00 20.00    +0.028 H 
ATOM     90 H90  LIG A   1      14.511  31.231  17.294  1.00 20.00    +0.043 H 
ATOM     91 H91  LIG A   1      16.262  31.250  17.208  1.00 20.00    +0.043 H 
ATOM     92 H92  LIG A   1      16.281  32.373  19.337  1.00 20.00    +0.118 HD
ATOM     93 H93  LIG A   1      14.658  32.319  19.423  1.00 20.00    +0.118 HD
ATOM     94 H94  LIG A   1      18.270  24.086  12.479  1.00 20.00    +0.068 H 
ATOM     95 H95  LIG A   1      23.600  20.333   7.885  1.00 20.00    +0.057 H 
ATOM     96 H96  LIG A   1      24.458  22.030   6.284  1.00 20.00    +0.119 HD
ATOM     97 H97  LIG A   1      25.012  20.511   6.017  1.00 20.00    +0.119 HD
ATOM     98 H98  LIG A   1      22.718  22.997  11.468  1.00 20.00    +0.189 HD
ATOM     99 H99  LIG A   1      22.981  21.433   8.489  1.00 20.00    +0.157 HD
ATOM    100 H100 LIG A   1      21.406  20.809   8.540  1.00 20.00    +0.157 HD
ATOM    101 H101 LIG A   1      19.738  22.054   9.992  1.00 20.00    +0.058 H 
ATOM    102 H102 LIG A   1      20.524  21.365  11.443  1.00 20.00    +0.058 H 
ATOM    103 H103 LIG A   1      20.772  24.290  10.909  1.00 20.00    +0.163 HD
ATOM    104 H104 LIG A   1      18.562  25.565  12.066  1.00 20.00    +0.057 H 
ATOM    105 H105 LIG A   1      17.841  25.698  14.230  1.00 20.00    +0.029 H 
ATOM    106 H106 LIG A   1      18.932  24.428  14.807  1.00 20.00    +0.029 H 
ATOM    107 H107 LIG A   1      20.588  25.926  15.363  1.00 20.00    +0.028 H 
ATOM    108 H108 LIG A   1      19.296  27.140  15.354  1.00 20.00    +0.028 H 
ATOM    109 H109 LIG A   1      19.791  27.770  13.060  1.00 20.00    +0.043 H 
ATOM    110 H110 LIG A   1      21.413  27.478  13.720  1.00 20.00    +0.043 H 
ATOM    111 H111 LIG A   1      21.334  25.277  12.960  1.00 20.00    +0.123 HD
ENDROOT
TORSDOF 0
                                                                                                                  
ENDMDL
MODEL 4
REMARK VINA RESULT:   -11.331      3.739     10.507
REMARK INTER + INTRA:         -11.331
REMARK INTER:                 -11.331
REMARK INTRA:                   0.000
REMARK UNBOUND:                 0.000
ROOT
ATOM      1 C1   LIG A   1      24.329  25.186  14.102  1.00 20.00    -0.060 C 
ATOM      2 C2   LIG A   1      23.245  24.537  13.220  1.00 20.00    -0.016 C 
ATOM      3 C3   LIG A   1      23.280  25.292  11.845  1.00 20.00    -0.023 C 
ATOM      4 C4   LIG A   1      22.489  24.622  10.759  1.00 20.00    -0.048 A 
ATOM      5 C5   LIG A   1      23.157  23.931   9.744  1.00 20.00    -0.058 A 
ATOM      6 C6   LIG A   1      22.500  22.910   9.070  1.00 20.00    -0.051 A 
ATOM      7 C7   LIG A   1      21.208  22.551   9.466  1.00 20.00    +0.017 A 
ATOM      8 C8   LIG A   1      20.459  23.448  10.236  1.00 20.00    -0.051 A 
ATOM      9 C9   LIG A   1      21.103  24.501  10.878  1.00 20.00    -0.058 A 
ATOM     10 C10  LIG A   1      20.746  21.157   9.304  1.00 20.00    +0.140 C 
ATOM     11 C11  LIG A   1      20.368  20.406  10.362  1.00 20.00    +0.047 C 
ATOM     12 C12  LIG A   1      20.655  20.643  11.814  1.00 20.00    +0.256 C 
ATOM     13 O13  LIG A   1      19.938  20.090  12.647  1.00 20.00    -0.269 OA
ATOM     14 N14  LIG A   1      21.934  21.116  12.080  1.00 20.00    -0.278 NA
ATOM     15 C15  LIG A   1      22.982  20.092  12.215  1.00 20.00    +0.029 C 
ATOM     16 C16  LIG A   1      23.042  18.993  11.126  1.00 20.00    -0.034 C 
ATOM     17 C17  LIG A   1      23.572  19.526   9.790  1.00 20.00    -0.034 C 
ATOM     18 C18  LIG A   1      23.286  18.655   8.550  1.00 20.00    +0.085 C 
ATOM     19 C19  LIG A   1      24.055  19.245   7.375  1.00 20.00    +0.311 C 
ATOM     20 O20  LIG A   1      23.834  20.293   6.791  1.00 20.00    -0.252 OA
ATOM     21 O21  LIG A   1      25.117  18.489   7.017  1.00 20.00    -0.481 OA
ATOM     22 C22  LIG A   1      21.847  18.347   8.146  1.00 20.00    +0.009 A 
ATOM     23 C23  LIG A   1      21.518  16.988   7.971  1.00 20.00    -0.052 A 
ATOM     24 C24  LIG A   1      20.256  16.578   7.515  1.00 20.00    -0.038 A 
ATOM     25 C25  LIG A   1      19.276  17.505   7.164  1.00 20.00    +0.038 A 
ATOM     26 N26  LIG A   1      17.986  17.164   6.763  1.00 20.00    -0.385 NA
ATOM     27 C27  LIG A   1      17.651  15.845   6.243  1.00 20.00    +0.016 C 
ATOM     28 C28  LIG A   1      18.164  15.661   4.814  1.00 20.00    -0.023 C 
ATOM     29 C29  LIG A   1      17.749  14.296   4.261  1.00 20.00    -0.003 C 
ATOM     30 N30  LIG A   1      18.203  14.166   2.876  1.00 20.00    -0.317 NA
ATOM     31 C31  LIG A   1      17.868  12.866   2.294  1.00 20.00    -0.005 C 
ATOM     32 C32  LIG A   1      16.809  12.999   1.195  1.00 20.00    -0.039 C 
ATOM     33 C33  LIG A   1      15.415  13.427   1.669  1.00 20.00    -0.040 C 
ATOM     34 C34  LIG A   1      14.733  12.469   2.651  1.00 20.00    -0.008 C 
ATOM     35 N35  LIG A   1      14.488  11.147   2.086  1.00 20.00    -0.330 NA
ATOM     36 C36  LIG A   1      19.580  18.855   7.364  1.00 20.00    +0.004 A 
ATOM     37 C37  LIG A   1      20.830  19.275   7.854  1.00 20.00    +0.133 A 
ATOM     38 O38  LIG A   1      20.952  20.639   8.021  1.00 20.00    -0.456 OA
ATOM     39 C39  LIG A   1      21.972  22.280  12.863  1.00 20.00    +0.246 C 
ATOM     40 O40  LIG A   1      20.946  22.788  13.333  1.00 20.00    -0.273 OA
ATOM     41 C41  LIG A   1      23.372  22.960  13.123  1.00 20.00    +0.088 C 
ATOM     42 N42  LIG A   1      23.894  22.397  14.390  1.00 20.00    -0.320 NA
ATOM     43 N43  LIG A   1      23.201  20.046  10.103  1.00 20.00    -0.287 NA
ATOM     44 C44  LIG A   1      22.301  20.975  10.199  1.00 20.00    +0.110 C 
ATOM     45 N45  LIG A   1      22.340  21.806  11.276  1.00 20.00    -0.386 NA
ATOM     46 C46  LIG A   1      21.231  21.154   9.123  1.00 20.00    +0.075 C 
ATOM     47 N47  LIG A   1      20.759  19.849   8.720  1.00 20.00    -0.348 NA
ATOM     48 C48  LIG A   1      20.040  19.672   7.557  1.00 20.00    +0.237 C 
ATOM     49 O49  LIG A   1      19.868  20.566   6.734  1.00 20.00    -0.273 OA
ATOM     50 C50  LIG A   1      19.421  18.269   7.431  1.00 20.00    +0.087 C 
ATOM     51 C51  LIG A   1      19.267  17.789   5.991  1.00 20.00    -0.027 C 
ATOM     52 C52  LIG A   1      19.830  16.374   5.983  1.00 20.00    -0.039 C 
ATOM     53 C53  LIG A   1      19.900  15.990   7.447  1.00 20.00    -0.004 C 
ATOM     54 N54  LIG A   1      20.262  17.246   8.114  1.00 20.00    -0.306 NA
ATOM     55 H55  LIG A   1      24.236  24.874  15.147  1.00 20.00    +0.023 H 
ATOM     56 H56  LIG A   1      24.238  26.277  14.090  1.00 20.00    +0.023 H 
ATOM     57 H57  LIG A   1      25.333  24.928  13.748  1.00 20.00    +0.023 H 
ATOM     58 H58  LIG A   1      22.283  24.777  13.693  1.00 20.00    +0.032 H 
ATOM     59 H59  LIG A   1      24.322  25.403  11.518  1.00 20.00    +0.032 H 
ATOM     60 H60  LIG A   1      22.900  26.314  11.981  1.00 20.00    +0.032 H 
ATOM     61 H61  LIG A   1      24.218  24.084   9.567  1.00 20.00    +0.063 H 
ATOM     62 H62  LIG A   1      23.057  22.302   8.362  1.00 20.00    +0.063 H 
ATOM     63 H63  LIG A   1      19.424  23.233  10.500  1.00 20.00    +0.063 H 
ATOM     64 H64  LIG A   1      20.555  25.075  11.624  1.00 20.00    +0.063 H 
ATOM     65 H65  LIG A   1      19.956  19.410  10.224  1.00 20.00    +0.072 H 
ATOM     66 H66  LIG A   1      22.810  19.603  13.183  1.00 20.00    +0.050 H 
ATOM     67 H67  LIG A   1      23.964  20.569  12.272  1.00 20.00    +0.050 H 
ATOM     68 H68  LIG A   1      22.073  18.501  11.013  1.00 20.00    +0.029 H 
ATOM     69 H69  LIG A   1      23.729  18.209  11.470  1.00 20.00    +0.029 H 
ATOM     70 H70  LIG A   1      23.220  20.534   9.625  1.00 20.00    +0.028 H 
ATOM     71 H71  LIG A   1      24.661  19.639   9.891  1.00 20.00    +0.028 H 
ATOM     72 H72  LIG A   1      23.770  17.692   8.773  1.00 20.00    +0.047 H 
ATOM     73 H73  LIG A   1      25.501  18.977   6.258  1.00 20.00    +0.296 HD
ATOM     74 H74  LIG A   1      22.250  16.210   8.187  1.00 20.00    +0.063 H 
ATOM     75 H75  LIG A   1      20.071  15.512   7.432  1.00 20.00    +0.064 H 
ATOM     76 H76  LIG A   1      17.519  17.918   6.262  1.00 20.00    +0.160 HD
ATOM     77 H77  LIG A   1      16.557  15.763   6.241  1.00 20.00    +0.049 H 
ATOM     78 H78  LIG A   1      18.007  15.048   6.904  1.00 20.00    +0.049 H 
ATOM     79 H79  LIG A   1      19.255  15.754   4.788  1.00 20.00    +0.030 H 
ATOM     80 H80  LIG A   1      17.765  16.460   4.175  1.00 20.00    +0.030 H 
ATOM     81 H81  LIG A   1      18.190  13.505   4.881  1.00 20.00    +0.043 H 
ATOM     82 H82  LIG A   1      16.660  14.204   4.314  1.00 20.00    +0.043 H 
ATOM     83 H83  LIG A   1      19.215  14.295   2.846  1.00 20.00    +0.122 HD
ATOM     84 H84  LIG A   1      17.570  12.127   3.049  1.00 20.00    +0.043 H 
ATOM     85 H85  LIG A   1      18.776  12.461   1.832  1.00 20.00    +0.043 H 
ATOM     86 H86  LIG A   1      16.738  12.043   0.661  1.00 20.00    +0.028 H 
ATOM     87 H87  LIG A   1      17.155  13.727   0.450  1.00 20.00    +0.028 H 
ATOM     88 H88  LIG A   1      14.773  13.544   0.785  1.00 20.00    +0.028 H 
ATOM     89 H89  LIG A   1      15.472  14.420   2.130  1.00 20.00    +0.028 H 
ATOM     90 H90  LIG A   1      13.769  12.897   2.949  1.00 20.00    +0.043 H 
ATOM     91 H91  LIG A   1      15.320  12.363   3.568  1.00 20.00    +0.043 H 
ATOM     92 H92  LIG A   1      15.369  10.714   1.814  1.00 20.00    +0.118 HD
ATOM     93 H93  LIG A   1      13.945  11.240   1.229  1.00 20.00    +0.118 HD
ATOM     94 H94  LIG A   1      18.827  19.612   7.155  1.00 20.00    +0.068 H 
ATOM     95 H95  LIG A   1      24.063  22.709  12.312  1.00 20.00    +0.057 H 
ATOM     96 H96  LIG A   1      23.851  21.382  14.402  1.00 20.00    +0.119 HD
ATOM     97 H97  LIG A   1      24.868  22.662  14.517  1.00 20.00    +0.119 HD
ATOM     98 H98  LIG A   1      23.029  19.517   9.237  1.00 20.00    +0.189 HD
ATOM     99 H99  LIG A   1      23.220  21.728  11.779  1.00 20.00    +0.157 HD
ATOM    100 H100 LIG A   1      22.048  22.764  11.128  1.00 20.00    +0.157 HD
ATOM    101 H101 LIG A   1      20.385  21.727   9.514  1.00 20.00    +0.058 H 
ATOM    102 H102 LIG A   1      21.664  21.679   8.265  1.00 20.00    +0.058 H 
ATOM    103 H103 LIG A   1      20.666  19.116   9.422  1.00 20.00    +0.163 HD
ATOM    104 H104 LIG A   1      18.442  18.306   7.924  1.00 20.00    +0.057 H 
ATOM    105 H105 LIG A   1      18.205  17.772   5.716  1.00 20.00    +0.029 H 
ATOM    106 H106 LIG A   1      19.792  18.412   5.258  1.00 20.00    +0.029 H 
ATOM    107 H107 LIG A   1      20.836  16.380   5.544  1.00 20.00    +0.028 H 
ATOM    108 H108 LIG A   1      19.210  15.686   5.399  1.00 20.00    +0.028 H 
ATOM    109 H109 LIG A   1      18.928  15.639   7.813  1.00 20.00    +0.043 H 
ATOM    110 H110 LIG A   1      20.639  15.206   7.635  1.00 20.00    +0.043 H 
ATOM    111 H111 LIG A   1      21.238  17.445   7.880  1.00 20.00    +0.123 HD
ENDROOT
TORSDOF 0
                                                                                                                  
ENDMDL
MODEL 5
REMARK VINA RESULT:   -11.242      3.658      7.001
REMARK INTER + INTRA:         -11.242
REMARK INTER:                 -11.242
REMARK INTRA:                   0.000
REMARK UNBOUND:                 0.000
ROOT
ATOM      1 C1   LIG A   1      17.677  10.039   3.064  1.00 20.00    -0.060 C 
ATOM      2 C2   LIG A   1      17.411  11.293   3.918  1.00 20.00    -0.016 C 
ATOM      3 C3   LIG A   1      16.931  10.783   5.321  1.00 20.00    -0.023 C 
ATOM      4 C4   LIG A   1      16.890  11.848   6.379  1.00 20.00    -0.048 A 
ATOM      5 C5   LIG A   1      17.879  11.879   7.366  1.00 20.00    -0.058 A 
ATOM      6 C6   LIG A   1      18.172  13.081   7.998  1.00 20.00    -0.051 A 
ATOM      7 C7   LIG A   1      17.519  14.246   7.586  1.00 20.00    +0.017 A 
ATOM      8 C8   LIG A   1      16.334  14.137   6.851  1.00 20.00    -0.051 A 
ATOM      9 C9   LIG A   1      16.009  12.924   6.252  1.00 20.00    -0.058 A 
ATOM     10 C10  LIG A   1      18.202  15.552   7.692  1.00 20.00    +0.140 C 
ATOM     11 C11  LIG A   1      18.448  16.315   6.604  1.00 20.00    +0.047 C 
ATOM     12 C12  LIG A   1      18.439  15.902   5.163  1.00 20.00    +0.256 C 
ATOM     13 O13  LIG A   1      18.314  16.777   4.307  1.00 20.00    -0.269 OA
ATOM     14 N14  LIG A   1      18.983  14.647   4.919  1.00 20.00    -0.278 NA
ATOM     15 C15  LIG A   1      20.443  14.604   4.745  1.00 20.00    +0.029 C 
ATOM     16 C16  LIG A   1      21.303  15.356   5.790  1.00 20.00    -0.034 C 
ATOM     17 C17  LIG A   1      21.327  14.644   7.147  1.00 20.00    -0.034 C 
ATOM     18 C18  LIG A   1      21.785  15.492   8.350  1.00 20.00    +0.085 C 
ATOM     19 C19  LIG A   1      21.930  14.563   9.550  1.00 20.00    +0.311 C 
ATOM     20 O20  LIG A   1      21.040  14.010  10.174  1.00 20.00    -0.252 OA
ATOM     21 O21  LIG A   1      23.222  14.337   9.879  1.00 20.00    -0.481 OA
ATOM     22 C22  LIG A   1      21.015  16.750   8.739  1.00 20.00    +0.009 A 
ATOM     23 C23  LIG A   1      21.765  17.937   8.859  1.00 20.00    -0.052 A 
ATOM     24 C24  LIG A   1      21.193  19.141   9.296  1.00 20.00    -0.038 A 
ATOM     25 C25  LIG A   1      19.856  19.210   9.682  1.00 20.00    +0.038 A 
ATOM     26 N26  LIG A   1      19.213  20.384  10.066  1.00 20.00    -0.385 NA
ATOM     27 C27  LIG A   1      19.940  21.558  10.533  1.00 20.00    +0.016 C 
ATOM     28 C28  LIG A   1      20.468  21.359  11.955  1.00 20.00    -0.023 C 
ATOM     29 C29  LIG A   1      21.173  22.622  12.452  1.00 20.00    -0.003 C 
ATOM     30 N30  LIG A   1      21.620  22.428  13.832  1.00 20.00    -0.317 NA
ATOM     31 C31  LIG A   1      22.335  23.590  14.361  1.00 20.00    -0.005 C 
ATOM     32 C32  LIG A   1      21.532  24.289  15.462  1.00 20.00    -0.039 C 
ATOM     33 C33  LIG A   1      20.241  24.978  15.003  1.00 20.00    -0.040 C 
ATOM     34 C34  LIG A   1      20.427  26.105  13.982  1.00 20.00    -0.008 C 
ATOM     35 N35  LIG A   1      21.220  27.217  14.494  1.00 20.00    -0.330 NA
ATOM     36 C36  LIG A   1      19.094  18.047   9.536  1.00 20.00    +0.004 A 
ATOM     37 C37  LIG A   1      19.650  16.843   9.065  1.00 20.00    +0.133 A 
ATOM     38 O38  LIG A   1      18.752  15.802   8.953  1.00 20.00    -0.456 OA
ATOM     39 C39  LIG A   1      18.153  13.788   4.183  1.00 20.00    +0.246 C 
ATOM     40 O40  LIG A   1      17.062  14.157   3.731  1.00 20.00    -0.273 OA
ATOM     41 C41  LIG A   1      18.634  12.302   3.952  1.00 20.00    +0.088 C 
ATOM     42 N42  LIG A   1      19.366  12.283   2.665  1.00 20.00    -0.320 NA
ATOM     43 N43  LIG A   1      20.686  14.540   6.854  1.00 20.00    -0.287 NA
ATOM     44 C44  LIG A   1      19.391  14.537   6.793  1.00 20.00    +0.110 C 
ATOM     45 N45  LIG A   1      18.793  13.899   5.750  1.00 20.00    -0.386 NA
ATOM     46 C46  LIG A   1      18.547  15.211   7.873  1.00 20.00    +0.075 C 
ATOM     47 N47  LIG A   1      19.165  16.470   8.223  1.00 20.00    -0.348 NA
ATOM     48 C48  LIG A   1      18.823  17.142   9.376  1.00 20.00    +0.237 C 
ATOM     49 O49  LIG A   1      18.085  16.668  10.234  1.00 20.00    -0.273 OA
ATOM     50 C50  LIG A   1      19.402  18.566   9.446  1.00 20.00    +0.087 C 
ATOM     51 C51  LIG A   1      19.677  19.053  10.865  1.00 20.00    -0.027 C 
ATOM     52 C52  LIG A   1      21.085  19.634  10.818  1.00 20.00    -0.039 C 
ATOM     53 C53  LIG A   1      21.369  19.807   9.340  1.00 20.00    -0.004 C 
ATOM     54 N54  LIG A   1      20.703  18.655   8.724  1.00 20.00    -0.306 NA
ATOM     55 H55  LIG A   1      17.807  10.292   2.007  1.00 20.00    +0.023 H 
ATOM     56 H56  LIG A   1      16.831   9.344   3.120  1.00 20.00    +0.023 H 
ATOM     57 H57  LIG A   1      18.570   9.508   3.410  1.00 20.00    +0.023 H 
ATOM     58 H58  LIG A   1      16.557  11.803   3.452  1.00 20.00    +0.032 H 
ATOM     59 H59  LIG A   1      17.586   9.968   5.655  1.00 20.00    +0.032 H 
ATOM     60 H60  LIG A   1      15.930  10.341   5.226  1.00 20.00    +0.032 H 
ATOM     61 H61  LIG A   1      18.513  11.016   7.552  1.00 20.00    +0.063 H 
ATOM     62 H62  LIG A   1      19.015  13.124   8.682  1.00 20.00    +0.063 H 
ATOM     63 H63  LIG A   1      15.760  15.022   6.576  1.00 20.00    +0.063 H 
ATOM     64 H64  LIG A   1      15.196  12.896   5.529  1.00 20.00    +0.063 H 
ATOM     65 H65  LIG A   1      18.880  17.308   6.701  1.00 20.00    +0.072 H 
ATOM     66 H66  LIG A   1      20.649  15.039   3.758  1.00 20.00    +0.050 H 
ATOM     67 H67  LIG A   1      20.783  13.565   4.709  1.00 20.00    +0.050 H 
ATOM     68 H68  LIG A   1      20.985  16.398   5.881  1.00 20.00    +0.029 H 
ATOM     69 H69  LIG A   1      22.334  15.399   5.416  1.00 20.00    +0.029 H 
ATOM     70 H70  LIG A   1      20.363  14.200   7.351  1.00 20.00    +0.028 H 
ATOM     71 H71  LIG A   1      22.001  13.781   7.053  1.00 20.00    +0.028 H 
ATOM     72 H72  LIG A   1      22.807  15.808   8.091  1.00 20.00    +0.047 H 
ATOM     73 H73  LIG A   1      23.160  13.744  10.658  1.00 20.00    +0.296 HD
ATOM     74 H74  LIG A   1      22.827  17.946   8.614  1.00 20.00    +0.063 H 
ATOM     75 H75  LIG A   1      21.831  20.018   9.336  1.00 20.00    +0.064 H 
ATOM     76 H76  LIG A   1      18.361  20.210  10.596  1.00 20.00    +0.160 HD
ATOM     77 H77  LIG A   1      19.238  22.401  10.529  1.00 20.00    +0.049 H 
ATOM     78 H78  LIG A   1      20.742  21.838   9.842  1.00 20.00    +0.049 H 
ATOM     79 H79  LIG A   1      21.162  20.512  11.986  1.00 20.00    +0.030 H 
ATOM     80 H80  LIG A   1      19.634  21.109  12.624  1.00 20.00    +0.030 H 
ATOM     81 H81  LIG A   1      22.031  22.839  11.802  1.00 20.00    +0.043 H 
ATOM     82 H82  LIG A   1      20.480  23.467  12.394  1.00 20.00    +0.043 H 
ATOM     83 H83  LIG A   1      22.233  21.612  13.869  1.00 20.00    +0.122 HD
ATOM     84 H84  LIG A   1      22.637  24.295  13.577  1.00 20.00    +0.043 H 
ATOM     85 H85  LIG A   1      23.271  23.233  14.809  1.00 20.00    +0.043 H 
ATOM     86 H86  LIG A   1      22.183  25.020  15.958  1.00 20.00    +0.028 H 
ATOM     87 H87  LIG A   1      21.272  23.556  16.237  1.00 20.00    +0.028 H 
ATOM     88 H88  LIG A   1      19.735  25.382  15.890  1.00 20.00    +0.028 H 
ATOM     89 H89  LIG A   1      19.556  24.232  14.582  1.00 20.00    +0.028 H 
ATOM     90 H90  LIG A   1      19.441  26.491  13.700  1.00 20.00    +0.043 H 
ATOM     91 H91  LIG A   1      20.888  25.731  13.064  1.00 20.00    +0.043 H 
ATOM     92 H92  LIG A   1      22.151  26.894  14.750  1.00 20.00    +0.118 HD
ATOM     93 H93  LIG A   1      20.799  27.567  15.353  1.00 20.00    +0.118 HD
ATOM     94 H94  LIG A   1      18.032  18.067   9.773  1.00 20.00    +0.068 H 
ATOM     95 H95  LIG A   1      19.317  12.004   4.754  1.00 20.00    +0.057 H 
ATOM     96 H96  LIG A   1      20.065  13.019   2.612  1.00 20.00    +0.119 HD
ATOM     97 H97  LIG A   1      19.851  11.395   2.550  1.00 20.00    +0.119 HD
ATOM     98 H98  LIG A   1      20.969  15.056   7.698  1.00 20.00    +0.189 HD
ATOM     99 H99  LIG A   1      19.447  13.308   5.246  1.00 20.00    +0.157 HD
ATOM    100 H100 LIG A   1      17.906  13.447   5.936  1.00 20.00    +0.157 HD
ATOM    101 H101 LIG A   1      17.536  15.408   7.504  1.00 20.00    +0.058 H 
ATOM    102 H102 LIG A   1      18.495  14.560   8.752  1.00 20.00    +0.058 H 
ATOM    103 H103 LIG A   1      19.607  17.026   7.493  1.00 20.00    +0.163 HD
ATOM    104 H104 LIG A   1      18.680  19.229   8.953  1.00 20.00    +0.057 H 
ATOM    105 H105 LIG A   1      18.958  19.835  11.138  1.00 20.00    +0.029 H 
ATOM    106 H106 LIG A   1      19.617  18.264  11.624  1.00 20.00    +0.029 H 
ATOM    107 H107 LIG A   1      21.793  18.920  11.259  1.00 20.00    +0.028 H 
ATOM    108 H108 LIG A   1      21.163  20.574  11.373  1.00 20.00    +0.028 H 
ATOM    109 H109 LIG A   1      20.934  20.739   8.959  1.00 20.00    +0.043 H 
ATOM    110 H110 LIG A   1      22.441  19.817   9.123  1.00 20.00    +0.043 H 
ATOM    111 H111 LIG A   1      21.246  17.823   8.968  1.00 20.00    +0.123 HD
ENDROOT
TORSDOF 0
                                                                                                                  
ENDMDL
MODEL 6
REMARK VINA RESULT:   -11.133      7.518     13.262
REMARK INTER + INTRA:         -11.133
REMARK INTER:                 -11.133
REMARK INTRA:                   0.000
REMARK UNBOUND:                 0.000
ROOT
ATOM      1 C1   LIG A   1      22.830  15.789  12.259  1.00 20.00    -0.060 C 
ATOM      2 C2   LIG A   1      21.538  15.999  11.445  1.00 20.00    -0.016 C 
ATOM      3 C3   LIG A   1      21.855  17.112  10.387  1.00 20.00    -0.023 C 
ATOM      4 C4   LIG A   1      20.808  17.259   9.320  1.00 20.00    -0.048 A 
ATOM      5 C5   LIG A   1      21.060  16.770   8.035  1.00 20.00    -0.058 A 
ATOM      6 C6   LIG A   1      19.991  16.419   7.219  1.00 20.00    -0.051 A 
ATOM      7 C7   LIG A   1      18.691  16.499   7.727  1.00 20.00    +0.017 A 
ATOM      8 C8   LIG A   1      18.450  17.280   8.862  1.00 20.00    -0.051 A 
ATOM      9 C9   LIG A   1      19.520  17.676   9.659  1.00 20.00    -0.058 A 
ATOM     10 C10  LIG A   1      17.649  15.572   7.238  1.00 20.00    +0.140 C 
ATOM     11 C11  LIG A   1      17.016  14.714   8.068  1.00 20.00    +0.047 C 
ATOM     12 C12  LIG A   1      17.432  14.276   9.440  1.00 20.00    +0.256 C 
ATOM     13 O13  LIG A   1      16.575  13.803  10.185  1.00 20.00    -0.269 OA
ATOM     14 N14  LIG A   1      18.796  14.061   9.588  1.00 20.00    -0.278 NA
ATOM     15 C15  LIG A   1      19.281  12.726   9.201  1.00 20.00    +0.029 C 
ATOM     16 C16  LIG A   1      18.804  12.168   7.838  1.00 20.00    -0.034 C 
ATOM     17 C17  LIG A   1      19.466  12.880   6.653  1.00 20.00    -0.034 C 
ATOM     18 C18  LIG A   1      18.775  12.708   5.285  1.00 20.00    +0.085 C 
ATOM     19 C19  LIG A   1      19.682  13.314   4.222  1.00 20.00    +0.311 C 
ATOM     20 O20  LIG A   1      19.931  14.494   4.040  1.00 20.00    -0.252 OA
ATOM     21 O21  LIG A   1      20.281  12.375   3.454  1.00 20.00    -0.481 OA
ATOM     22 C22  LIG A   1      17.336  13.177   5.089  1.00 20.00    +0.009 A 
ATOM     23 C23  LIG A   1      16.429  12.230   4.575  1.00 20.00    -0.052 A 
ATOM     24 C24  LIG A   1      15.100  12.559   4.265  1.00 20.00    -0.038 A 
ATOM     25 C25  LIG A   1      14.625  13.862   4.409  1.00 20.00    +0.038 A 
ATOM     26 N26  LIG A   1      13.305  14.241   4.177  1.00 20.00    -0.385 NA
ATOM     27 C27  LIG A   1      12.396  13.454   3.353  1.00 20.00    +0.016 C 
ATOM     28 C28  LIG A   1      12.720  13.603   1.865  1.00 20.00    -0.023 C 
ATOM     29 C29  LIG A   1      11.719  12.822   1.013  1.00 20.00    -0.003 C 
ATOM     30 N30  LIG A   1      12.015  13.024  -0.406  1.00 20.00    -0.317 NA
ATOM     31 C31  LIG A   1      11.113  12.275  -1.281  1.00 20.00    -0.005 C 
ATOM     32 C32  LIG A   1      10.185  13.210  -2.063  1.00 20.00    -0.039 C 
ATOM     33 C33  LIG A   1       9.147  13.965  -1.224  1.00 20.00    -0.040 C 
ATOM     34 C34  LIG A   1       8.147  13.083  -0.470  1.00 20.00    -0.008 C 
ATOM     35 N35  LIG A   1       7.316  12.273  -1.354  1.00 20.00    -0.330 NA
ATOM     36 C36  LIG A   1      15.507  14.802   4.949  1.00 20.00    +0.004 A 
ATOM     37 C37  LIG A   1      16.830  14.473   5.295  1.00 20.00    +0.133 A 
ATOM     38 O38  LIG A   1      17.555  15.511   5.844  1.00 20.00    -0.456 OA
ATOM     39 C39  LIG A   1      19.379  14.744  10.666  1.00 20.00    +0.246 C 
ATOM     40 O40  LIG A   1      18.706  15.418  11.456  1.00 20.00    -0.273 OA
ATOM     41 C41  LIG A   1      20.944  14.655  10.849  1.00 20.00    +0.088 C 
ATOM     42 N42  LIG A   1      21.206  13.516  11.759  1.00 20.00    -0.320 NA
ATOM     43 N43  LIG A   1      19.378  13.356   7.175  1.00 20.00    -0.287 NA
ATOM     44 C44  LIG A   1      18.992  14.467   7.719  1.00 20.00    +0.110 C 
ATOM     45 N45  LIG A   1      19.437  14.764   8.971  1.00 20.00    -0.386 NA
ATOM     46 C46  LIG A   1      18.075  15.437   6.976  1.00 20.00    +0.075 C 
ATOM     47 N47  LIG A   1      17.055  14.675   6.292  1.00 20.00    -0.348 NA
ATOM     48 C48  LIG A   1      16.290  15.234   5.291  1.00 20.00    +0.237 C 
ATOM     49 O49  LIG A   1      16.505  16.350   4.828  1.00 20.00    -0.273 OA
ATOM     50 C50  LIG A   1      15.106  14.350   4.863  1.00 20.00    +0.087 C 
ATOM     51 C51  LIG A   1      14.700  14.525   3.402  1.00 20.00    -0.027 C 
ATOM     52 C52  LIG A   1      14.571  13.110   2.855  1.00 20.00    -0.039 C 
ATOM     53 C53  LIG A   1      14.517  12.233   4.090  1.00 20.00    -0.004 C 
ATOM     54 N54  LIG A   1      15.426  12.904   5.027  1.00 20.00    -0.306 NA
ATOM     55 H55  LIG A   1      22.646  15.190  13.156  1.00 20.00    +0.023 H 
ATOM     56 H56  LIG A   1      23.236  16.748  12.597  1.00 20.00    +0.023 H 
ATOM     57 H57  LIG A   1      23.599  15.292  11.658  1.00 20.00    +0.023 H 
ATOM     58 H58  LIG A   1      20.803  16.420  12.144  1.00 20.00    +0.032 H 
ATOM     59 H59  LIG A   1      22.824  16.900   9.916  1.00 20.00    +0.032 H 
ATOM     60 H60  LIG A   1      21.977  18.077  10.897  1.00 20.00    +0.032 H 
ATOM     61 H61  LIG A   1      22.070  16.532   7.713  1.00 20.00    +0.063 H 
ATOM     62 H62  LIG A   1      20.191  15.936   6.267  1.00 20.00    +0.063 H 
ATOM     63 H63  LIG A   1      17.439  17.424   9.241  1.00 20.00    +0.063 H 
ATOM     64 H64  LIG A   1      19.314  18.112  10.635  1.00 20.00    +0.063 H 
ATOM     65 H65  LIG A   1      16.197  14.092   7.714  1.00 20.00    +0.072 H 
ATOM     66 H66  LIG A   1      18.945  12.038   9.987  1.00 20.00    +0.050 H 
ATOM     67 H67  LIG A   1      20.374  12.710   9.212  1.00 20.00    +0.050 H 
ATOM     68 H68  LIG A   1      17.713  12.187   7.767  1.00 20.00    +0.029 H 
ATOM     69 H69  LIG A   1      19.081  11.107   7.788  1.00 20.00    +0.029 H 
ATOM     70 H70  LIG A   1      19.595  13.930   6.874  1.00 20.00    +0.028 H 
ATOM     71 H71  LIG A   1      20.494  12.498   6.573  1.00 20.00    +0.028 H 
ATOM     72 H72  LIG A   1      18.786  11.622   5.106  1.00 20.00    +0.047 H 
ATOM     73 H73  LIG A   1      20.814  12.902   2.821  1.00 20.00    +0.296 HD
ATOM     74 H74  LIG A   1      16.744  11.201   4.399  1.00 20.00    +0.063 H 
ATOM     75 H75  LIG A   1      14.456  11.768   3.898  1.00 20.00    +0.064 H 
ATOM     76 H76  LIG A   1      13.205  15.243   4.029  1.00 20.00    +0.160 HD
ATOM     77 H77  LIG A   1      11.382  13.828   3.536  1.00 20.00    +0.049 H 
ATOM     78 H78  LIG A   1      12.384  12.402   3.658  1.00 20.00    +0.049 H 
ATOM     79 H79  LIG A   1      13.736  13.249   1.661  1.00 20.00    +0.030 H 
ATOM     80 H80  LIG A   1      12.696  14.666   1.590  1.00 20.00    +0.030 H 
ATOM     81 H81  LIG A   1      11.783  11.756   1.265  1.00 20.00    +0.043 H 
ATOM     82 H82  LIG A   1      10.706  13.166   1.242  1.00 20.00    +0.043 H 
ATOM     83 H83  LIG A   1      12.976  12.734  -0.588  1.00 20.00    +0.122 HD
ATOM     84 H84  LIG A   1      10.545  11.505  -0.746  1.00 20.00    +0.043 H 
ATOM     85 H85  LIG A   1      11.728  11.732  -2.010  1.00 20.00    +0.043 H 
ATOM     86 H86  LIG A   1       9.675  12.626  -2.840  1.00 20.00    +0.028 H 
ATOM     87 H87  LIG A   1      10.792  13.949  -2.603  1.00 20.00    +0.028 H 
ATOM     88 H88  LIG A   1       8.593  14.640  -1.890  1.00 20.00    +0.028 H 
ATOM     89 H89  LIG A   1       9.659  14.612  -0.502  1.00 20.00    +0.028 H 
ATOM     90 H90  LIG A   1       7.487  13.727   0.123  1.00 20.00    +0.043 H 
ATOM     91 H91  LIG A   1       8.658  12.428   0.240  1.00 20.00    +0.043 H 
ATOM     92 H92  LIG A   1       7.901  11.650  -1.908  1.00 20.00    +0.118 HD
ATOM     93 H93  LIG A   1       6.841  12.878  -2.021  1.00 20.00    +0.118 HD
ATOM     94 H94  LIG A   1      15.164  15.819   5.129  1.00 20.00    +0.068 H 
ATOM     95 H95  LIG A   1      21.420  14.455   9.883  1.00 20.00    +0.057 H 
ATOM     96 H96  LIG A   1      20.716  12.675  11.468  1.00 20.00    +0.119 HD
ATOM     97 H97  LIG A   1      22.200  13.299  11.772  1.00 20.00    +0.119 HD
ATOM     98 H98  LIG A   1      18.955  13.291   6.238  1.00 20.00    +0.189 HD
ATOM     99 H99  LIG A   1      20.208  14.162   9.248  1.00 20.00    +0.157 HD
ATOM    100 H100 LIG A   1      19.598  15.742   9.181  1.00 20.00    +0.157 HD
ATOM    101 H101 LIG A   1      17.589  16.122   7.677  1.00 20.00    +0.058 H 
ATOM    102 H102 LIG A   1      18.664  16.010   6.253  1.00 20.00    +0.058 H 
ATOM    103 H103 LIG A   1      16.671  13.844   6.740  1.00 20.00    +0.163 HD
ATOM    104 H104 LIG A   1      14.266  14.601   5.521  1.00 20.00    +0.057 H 
ATOM    105 H105 LIG A   1      13.733  15.039   3.343  1.00 20.00    +0.029 H 
ATOM    106 H106 LIG A   1      15.420  15.098   2.808  1.00 20.00    +0.029 H 
ATOM    107 H107 LIG A   1      15.457  12.864   2.255  1.00 20.00    +0.028 H 
ATOM    108 H108 LIG A   1      13.688  12.990   2.219  1.00 20.00    +0.028 H 
ATOM    109 H109 LIG A   1      13.505  12.201   4.510  1.00 20.00    +0.043 H 
ATOM    110 H110 LIG A   1      14.835  11.207   3.885  1.00 20.00    +0.043 H 
ATOM    111 H111 LIG A   1      16.379  12.760   4.682  1.00 20.00    +0.123 HD
ENDROOT
TORSDOF 0
                                                                                                                  
ENDMDL
MODEL 7
REMARK VINA RESULT:   -11.045      2.738     10.177
REMARK INTER + INTRA:         -11.045
REMARK INTER:                 -11.045
REMARK INTRA:                   0.000
REMARK UNBOUND:                 0.000
ROOT
ATOM      1 C1   LIG A   1      22.218  29.608  16.000  1.00 20.00    -0.060 C 
ATOM      2 C2   LIG A   1      21.489  28.692  14.999  1.00 20.00    -0.016 C 
ATOM      3 C3   LIG A   1      21.924  29.162  13.567  1.00 20.00    -0.023 C 
ATOM      4 C4   LIG A   1      21.538  28.214  12.468  1.00 20.00    -0.048 A 
ATOM      5 C5   LIG A   1      22.515  27.409  11.875  1.00 20.00    -0.058 A 
ATOM      6 C6   LIG A   1      22.139  26.213  11.276  1.00 20.00    -0.051 A 
ATOM      7 C7   LIG A   1      20.803  25.809  11.337  1.00 20.00    +0.017 A 
ATOM      8 C8   LIG A   1      19.818  26.758  11.634  1.00 20.00    -0.051 A 
ATOM      9 C9   LIG A   1      20.190  27.977  12.192  1.00 20.00    -0.058 A 
ATOM     10 C10  LIG A   1      20.466  24.371  11.354  1.00 20.00    +0.140 C 
ATOM     11 C11  LIG A   1      19.804  23.808  12.388  1.00 20.00    +0.047 C 
ATOM     12 C12  LIG A   1      19.613  24.353  13.772  1.00 20.00    +0.256 C 
ATOM     13 O13  LIG A   1      18.693  23.904  14.453  1.00 20.00    -0.269 OA
ATOM     14 N14  LIG A   1      20.727  24.997  14.296  1.00 20.00    -0.278 NA
ATOM     15 C15  LIG A   1      21.716  24.133  14.958  1.00 20.00    +0.029 C 
ATOM     16 C16  LIG A   1      22.155  22.853  14.204  1.00 20.00    -0.034 C 
ATOM     17 C17  LIG A   1      23.056  23.165  13.004  1.00 20.00    -0.034 C 
ATOM     18 C18  LIG A   1      23.204  22.043  11.956  1.00 20.00    +0.085 C 
ATOM     19 C19  LIG A   1      24.281  22.466  10.964  1.00 20.00    +0.311 C 
ATOM     20 O20  LIG A   1      24.214  23.351  10.127  1.00 20.00    -0.252 OA
ATOM     21 O21  LIG A   1      25.428  21.767  11.114  1.00 20.00    -0.481 OA
ATOM     22 C22  LIG A   1      21.976  21.516  11.219  1.00 20.00    +0.009 A 
ATOM     23 C23  LIG A   1      21.769  20.123  11.256  1.00 20.00    -0.052 A 
ATOM     24 C24  LIG A   1      20.728  19.504  10.546  1.00 20.00    -0.038 A 
ATOM     25 C25  LIG A   1      19.874  20.238   9.726  1.00 20.00    +0.038 A 
ATOM     26 N26  LIG A   1      18.788  19.695   9.043  1.00 20.00    -0.385 NA
ATOM     27 C27  LIG A   1      18.681  18.272   8.748  1.00 20.00    +0.016 C 
ATOM     28 C28  LIG A   1      19.622  17.864   7.613  1.00 20.00    -0.023 C 
ATOM     29 C29  LIG A   1      19.451  16.383   7.274  1.00 20.00    -0.003 C 
ATOM     30 N30  LIG A   1      20.320  16.030   6.150  1.00 20.00    -0.317 NA
ATOM     31 C31  LIG A   1      20.231  14.613   5.794  1.00 20.00    -0.005 C 
ATOM     32 C32  LIG A   1      19.565  14.419   4.428  1.00 20.00    -0.039 C 
ATOM     33 C33  LIG A   1      18.078  14.787   4.359  1.00 20.00    -0.040 C 
ATOM     34 C34  LIG A   1      17.159  13.976   5.279  1.00 20.00    -0.008 C 
ATOM     35 N35  LIG A   1      17.152  12.551   4.969  1.00 20.00    -0.330 NA
ATOM     36 C36  LIG A   1      20.051  21.625   9.707  1.00 20.00    +0.004 A 
ATOM     37 C37  LIG A   1      21.069  22.259  10.443  1.00 20.00    +0.133 A 
ATOM     38 O38  LIG A   1      21.083  23.634  10.336  1.00 20.00    -0.456 OA
ATOM     39 C39  LIG A   1      20.475  26.290  14.781  1.00 20.00    +0.246 C 
ATOM     40 O40  LIG A   1      19.336  26.772  14.801  1.00 20.00    -0.273 OA
ATOM     41 C41  LIG A   1      21.698  27.148  15.291  1.00 20.00    +0.088 C 
ATOM     42 N42  LIG A   1      21.817  26.901  16.747  1.00 20.00    -0.320 NA
ATOM     43 N43  LIG A   1      22.586  23.696  13.070  1.00 20.00    -0.287 NA
ATOM     44 C44  LIG A   1      21.669  24.528  12.688  1.00 20.00    +0.110 C 
ATOM     45 N45  LIG A   1      21.338  25.554  13.520  1.00 20.00    -0.386 NA
ATOM     46 C46  LIG A   1      20.984  24.382  11.331  1.00 20.00    +0.075 C 
ATOM     47 N47  LIG A   1      20.709  22.981  11.101  1.00 20.00    -0.348 NA
ATOM     48 C48  LIG A   1      20.397  22.507   9.845  1.00 20.00    +0.237 C 
ATOM     49 O49  LIG A   1      20.459  23.199   8.833  1.00 20.00    -0.273 OA
ATOM     50 C50  LIG A   1      19.901  21.051   9.849  1.00 20.00    +0.087 C 
ATOM     51 C51  LIG A   1      20.222  20.284   8.570  1.00 20.00    -0.027 C 
ATOM     52 C52  LIG A   1      20.811  18.960   9.040  1.00 20.00    -0.039 C 
ATOM     53 C53  LIG A   1      20.434  18.881  10.505  1.00 20.00    -0.004 C 
ATOM     54 N54  LIG A   1      20.523  20.273  10.959  1.00 20.00    -0.306 NA
ATOM     55 H55  LIG A   1      21.814  29.500  17.012  1.00 20.00    +0.023 H 
ATOM     56 H56  LIG A   1      22.096  30.661  15.723  1.00 20.00    +0.023 H 
ATOM     57 H57  LIG A   1      23.291  29.390  16.026  1.00 20.00    +0.023 H 
ATOM     58 H58  LIG A   1      20.419  28.920  15.100  1.00 20.00    +0.032 H 
ATOM     59 H59  LIG A   1      23.012  29.312  13.549  1.00 20.00    +0.032 H 
ATOM     60 H60  LIG A   1      21.484  30.145  13.356  1.00 20.00    +0.032 H 
ATOM     61 H61  LIG A   1      23.572  27.632  11.993  1.00 20.00    +0.063 H 
ATOM     62 H62  LIG A   1      22.912  25.539  10.917  1.00 20.00    +0.063 H 
ATOM     63 H63  LIG A   1      18.761  26.495  11.618  1.00 20.00    +0.063 H 
ATOM     64 H64  LIG A   1      19.415  28.627  12.597  1.00 20.00    +0.063 H 
ATOM     65 H65  LIG A   1      19.493  22.767  12.356  1.00 20.00    +0.072 H 
ATOM     66 H66  LIG A   1      21.269  23.828  15.913  1.00 20.00    +0.050 H 
ATOM     67 H67  LIG A   1      22.613  24.710  15.199  1.00 20.00    +0.050 H 
ATOM     68 H68  LIG A   1      21.288  22.252  13.917  1.00 20.00    +0.029 H 
ATOM     69 H69  LIG A   1      22.728  22.227  14.900  1.00 20.00    +0.029 H 
ATOM     70 H70  LIG A   1      22.737  24.079  12.525  1.00 20.00    +0.028 H 
ATOM     71 H71  LIG A   1      24.054  23.406  13.397  1.00 20.00    +0.028 H 
ATOM     72 H72  LIG A   1      23.629  21.197  12.518  1.00 20.00    +0.047 H 
ATOM     73 H73  LIG A   1      26.013  22.133  10.416  1.00 20.00    +0.296 HD
ATOM     74 H74  LIG A   1      22.424  19.482  11.845  1.00 20.00    +0.063 H 
ATOM     75 H75  LIG A   1      20.618  18.429  10.647  1.00 20.00    +0.064 H 
ATOM     76 H76  LIG A   1      18.474  20.284   8.274  1.00 20.00    +0.160 HD
ATOM     77 H77  LIG A   1      17.646  18.079   8.438  1.00 20.00    +0.049 H 
ATOM     78 H78  LIG A   1      18.842  17.661   9.642  1.00 20.00    +0.049 H 
ATOM     79 H79  LIG A   1      20.662  18.062   7.894  1.00 20.00    +0.030 H 
ATOM     80 H80  LIG A   1      19.414  18.477   6.725  1.00 20.00    +0.030 H 
ATOM     81 H81  LIG A   1      19.704  15.778   8.154  1.00 20.00    +0.043 H 
ATOM     82 H82  LIG A   1      18.404  16.191   7.018  1.00 20.00    +0.043 H 
ATOM     83 H83  LIG A   1      21.285  16.254   6.395  1.00 20.00    +0.122 HD
ATOM     84 H84  LIG A   1      19.740  14.011   6.567  1.00 20.00    +0.043 H 
ATOM     85 H85  LIG A   1      21.253  14.221   5.723  1.00 20.00    +0.043 H 
ATOM     86 H86  LIG A   1      19.700  13.374   4.120  1.00 20.00    +0.028 H 
ATOM     87 H87  LIG A   1      20.101  15.018   3.680  1.00 20.00    +0.028 H 
ATOM     88 H88  LIG A   1      17.742  14.662   3.321  1.00 20.00    +0.028 H 
ATOM     89 H89  LIG A   1      17.952  15.852   4.588  1.00 20.00    +0.028 H 
ATOM     90 H90  LIG A   1      16.136  14.353   5.174  1.00 20.00    +0.043 H 
ATOM     91 H91  LIG A   1      17.434  14.112   6.328  1.00 20.00    +0.043 H 
ATOM     92 H92  LIG A   1      18.089  12.165   5.073  1.00 20.00    +0.118 HD
ATOM     93 H93  LIG A   1      16.902  12.417   3.990  1.00 20.00    +0.118 HD
ATOM     94 H94  LIG A   1      19.374  22.245   9.123  1.00 20.00    +0.068 H 
ATOM     95 H95  LIG A   1      22.617  26.814  14.798  1.00 20.00    +0.057 H 
ATOM     96 H96  LIG A   1      21.810  25.909  16.967  1.00 20.00    +0.119 HD
ATOM     97 H97  LIG A   1      22.692  27.284  17.097  1.00 20.00    +0.119 HD
ATOM     98 H98  LIG A   1      22.714  22.992  12.330  1.00 20.00    +0.189 HD
ATOM     99 H99  LIG A   1      22.018  25.667  14.266  1.00 20.00    +0.157 HD
ATOM    100 H100 LIG A   1      21.072  26.429  13.085  1.00 20.00    +0.157 HD
ATOM    101 H101 LIG A   1      20.037  24.931  11.317  1.00 20.00    +0.058 H 
ATOM    102 H102 LIG A   1      21.643  24.769  10.548  1.00 20.00    +0.058 H 
ATOM    103 H103 LIG A   1      20.429  22.395  11.886  1.00 20.00    +0.163 HD
ATOM    104 H104 LIG A   1      18.816  21.084  10.008  1.00 20.00    +0.057 H 
ATOM    105 H105 LIG A   1      19.302  20.104   8.002  1.00 20.00    +0.029 H 
ATOM    106 H106 LIG A   1      20.927  20.801   7.909  1.00 20.00    +0.029 H 
ATOM    107 H107 LIG A   1      21.903  18.983   8.930  1.00 20.00    +0.028 H 
ATOM    108 H108 LIG A   1      20.431  18.111   8.463  1.00 20.00    +0.028 H 
ATOM    109 H109 LIG A   1      19.409  18.511  10.632  1.00 20.00    +0.043 H 
ATOM    110 H110 LIG A   1      21.105  18.229  11.071  1.00 20.00    +0.043 H 
ATOM    111 H111 LIG A   1      21.515  20.521  10.988  1.00 20.00    +0.123 HD
ENDROOT
TORSDOF 0
                                                                                                                  
ENDMDL
MODEL 8
REMARK VINA RESULT:   -11.022      2.653     10.568
REMARK INTER + INTRA:         -11.022
REMARK INTER:                 -11.022
REMARK INTRA:                   0.000
REMARK UNBOUND:                 0.000
ROOT
ATOM      1 C1   LIG A   1      20.606  31.353  16.760  1.00 20.00    -0.060 C 
ATOM      2 C2   LIG A   1      20.426  30.512  15.482  1.00 20.00    -0.016 C 
ATOM      3 C3   LIG A   1      21.765  30.636  14.675  1.00 20.00    -0.023 C 
ATOM      4 C4   LIG A   1      21.887  29.663  13.537  1.00 20.00    -0.048 A 
ATOM      5 C5   LIG A   1      22.733  28.558  13.662  1.00 20.00    -0.058 A 
ATOM      6 C6   LIG A   1      22.482  27.421  12.904  1.00 20.00    -0.051 A 
ATOM      7 C7   LIG A   1      21.350  27.382  12.086  1.00 20.00    +0.017 A 
ATOM      8 C8   LIG A   1      20.723  28.583  11.735  1.00 20.00    -0.051 A 
ATOM      9 C9   LIG A   1      21.003  29.737  12.458  1.00 20.00    -0.058 A 
ATOM     10 C10  LIG A   1      20.676  26.095  11.817  1.00 20.00    +0.140 C 
ATOM     11 C11  LIG A   1      19.389  25.879  12.170  1.00 20.00    +0.047 C 
ATOM     12 C12  LIG A   1      18.554  26.656  13.142  1.00 20.00    +0.256 C 
ATOM     13 O13  LIG A   1      17.330  26.562  13.063  1.00 20.00    -0.269 OA
ATOM     14 N14  LIG A   1      19.230  27.069  14.283  1.00 20.00    -0.278 NA
ATOM     15 C15  LIG A   1      19.294  26.091  15.381  1.00 20.00    +0.029 C 
ATOM     16 C16  LIG A   1      19.709  24.644  15.017  1.00 20.00    -0.034 C 
ATOM     17 C17  LIG A   1      21.199  24.533  14.677  1.00 20.00    -0.034 C 
ATOM     18 C18  LIG A   1      21.628  23.267  13.909  1.00 20.00    +0.085 C 
ATOM     19 C19  LIG A   1      23.151  23.250  13.845  1.00 20.00    +0.311 C 
ATOM     20 O20  LIG A   1      23.877  23.987  13.199  1.00 20.00    -0.252 OA
ATOM     21 O21  LIG A   1      23.694  22.314  14.656  1.00 20.00    -0.481 OA
ATOM     22 C22  LIG A   1      21.034  22.964  12.537  1.00 20.00    +0.009 A 
ATOM     23 C23  LIG A   1      20.454  21.690  12.368  1.00 20.00    -0.052 A 
ATOM     24 C24  LIG A   1      19.953  21.256  11.131  1.00 20.00    -0.038 A 
ATOM     25 C25  LIG A   1      20.049  22.051   9.991  1.00 20.00    +0.038 A 
ATOM     26 N26  LIG A   1      19.520  21.705   8.750  1.00 20.00    -0.385 NA
ATOM     27 C27  LIG A   1      19.211  20.327   8.387  1.00 20.00    +0.016 C 
ATOM     28 C28  LIG A   1      20.481  19.530   8.089  1.00 20.00    -0.023 C 
ATOM     29 C29  LIG A   1      20.136  18.106   7.649  1.00 20.00    -0.003 C 
ATOM     30 N30  LIG A   1      21.362  17.381   7.316  1.00 20.00    -0.317 NA
ATOM     31 C31  LIG A   1      21.106  15.996   6.918  1.00 20.00    -0.005 C 
ATOM     32 C32  LIG A   1      21.407  15.774   5.433  1.00 20.00    -0.039 C 
ATOM     33 C33  LIG A   1      20.469  16.492   4.454  1.00 20.00    -0.040 C 
ATOM     34 C34  LIG A   1      18.994  16.087   4.543  1.00 20.00    -0.008 C 
ATOM     35 N35  LIG A   1      18.766  14.680   4.232  1.00 20.00    -0.330 NA
ATOM     36 C36  LIG A   1      20.593  23.329  10.154  1.00 20.00    +0.004 A 
ATOM     37 C37  LIG A   1      21.066  23.787  11.397  1.00 20.00    +0.133 A 
ATOM     38 O38  LIG A   1      21.541  25.082  11.388  1.00 20.00    -0.456 OA
ATOM     39 C39  LIG A   1      19.122  28.440  14.558  1.00 20.00    +0.246 C 
ATOM     40 O40  LIG A   1      18.417  29.193  13.875  1.00 20.00    -0.273 OA
ATOM     41 C41  LIG A   1      19.950  29.027  15.768  1.00 20.00    +0.088 C 
ATOM     42 N42  LIG A   1      19.066  28.979  16.956  1.00 20.00    -0.320 NA
ATOM     43 N43  LIG A   1      20.969  25.170  14.455  1.00 20.00    -0.287 NA
ATOM     44 C44  LIG A   1      20.776  26.140  13.617  1.00 20.00    +0.110 C 
ATOM     45 N45  LIG A   1      20.319  27.329  14.098  1.00 20.00    -0.386 NA
ATOM     46 C46  LIG A   1      21.072  25.971  12.128  1.00 20.00    +0.075 C 
ATOM     47 N47  LIG A   1      20.606  24.668  11.711  1.00 20.00    -0.348 NA
ATOM     48 C48  LIG A   1      21.017  24.105  10.522  1.00 20.00    +0.237 C 
ATOM     49 O49  LIG A   1      21.888  24.599   9.812  1.00 20.00    -0.273 OA
ATOM     50 C50  LIG A   1      20.228  22.840  10.142  1.00 20.00    +0.087 C 
ATOM     51 C51  LIG A   1      21.031  21.834   9.322  1.00 20.00    -0.027 C 
ATOM     52 C52  LIG A   1      20.787  20.490   9.995  1.00 20.00    -0.039 C 
ATOM     53 C53  LIG A   1      19.583  20.729  10.884  1.00 20.00    -0.004 C 
ATOM     54 N54  LIG A   1      19.772  22.105  11.356  1.00 20.00    -0.306 NA
ATOM     55 H55  LIG A   1      19.655  31.504  17.280  1.00 20.00    +0.023 H 
ATOM     56 H56  LIG A   1      20.994  32.349  16.518  1.00 20.00    +0.023 H 
ATOM     57 H57  LIG A   1      21.311  30.877  17.450  1.00 20.00    +0.023 H 
ATOM     58 H58  LIG A   1      19.648  31.015  14.893  1.00 20.00    +0.032 H 
ATOM     59 H59  LIG A   1      22.614  30.502  15.358  1.00 20.00    +0.032 H 
ATOM     60 H60  LIG A   1      21.860  31.656  14.280  1.00 20.00    +0.032 H 
ATOM     61 H61  LIG A   1      23.498  28.521  14.433  1.00 20.00    +0.063 H 
ATOM     62 H62  LIG A   1      23.072  26.527  13.086  1.00 20.00    +0.063 H 
ATOM     63 H63  LIG A   1      19.884  28.596  11.040  1.00 20.00    +0.063 H 
ATOM     64 H64  LIG A   1      20.376  30.615  12.311  1.00 20.00    +0.063 H 
ATOM     65 H65  LIG A   1      18.880  24.958  11.898  1.00 20.00    +0.072 H 
ATOM     66 H66  LIG A   1      18.288  26.056  15.820  1.00 20.00    +0.050 H 
ATOM     67 H67  LIG A   1      19.968  26.451  16.162  1.00 20.00    +0.050 H 
ATOM     68 H68  LIG A   1      19.078  24.246  14.218  1.00 20.00    +0.029 H 
ATOM     69 H69  LIG A   1      19.515  24.004  15.887  1.00 20.00    +0.029 H 
ATOM     70 H70  LIG A   1      21.527  25.417  14.148  1.00 20.00    +0.028 H 
ATOM     71 H71  LIG A   1      21.756  24.571  15.624  1.00 20.00    +0.028 H 
ATOM     72 H72  LIG A   1      21.346  22.435  14.572  1.00 20.00    +0.047 H 
ATOM     73 H73  LIG A   1      24.658  22.411  14.505  1.00 20.00    +0.296 HD
ATOM     74 H74  LIG A   1      20.384  21.000  13.208  1.00 20.00    +0.063 H 
ATOM     75 H75  LIG A   1      19.498  20.272  11.089  1.00 20.00    +0.064 H 
ATOM     76 H76  LIG A   1      19.936  22.232   7.985  1.00 20.00    +0.160 HD
ATOM     77 H77  LIG A   1      18.590  20.359   7.484  1.00 20.00    +0.049 H 
ATOM     78 H78  LIG A   1      18.598  19.837   9.151  1.00 20.00    +0.049 H 
ATOM     79 H79  LIG A   1      21.125  19.498   8.974  1.00 20.00    +0.030 H 
ATOM     80 H80  LIG A   1      21.055  20.035   7.301  1.00 20.00    +0.030 H 
ATOM     81 H81  LIG A   1      19.601  17.596   8.460  1.00 20.00    +0.043 H 
ATOM     82 H82  LIG A   1      19.473  18.150   6.779  1.00 20.00    +0.043 H 
ATOM     83 H83  LIG A   1      21.981  17.387   8.128  1.00 20.00    +0.122 HD
ATOM     84 H84  LIG A   1      20.094  15.661   7.175  1.00 20.00    +0.043 H 
ATOM     85 H85  LIG A   1      21.782  15.351   7.494  1.00 20.00    +0.043 H 
ATOM     86 H86  LIG A   1      21.393  14.695   5.231  1.00 20.00    +0.028 H 
ATOM     87 H87  LIG A   1      22.434  16.099   5.223  1.00 20.00    +0.028 H 
ATOM     88 H88  LIG A   1      20.829  16.302   3.434  1.00 20.00    +0.028 H 
ATOM     89 H89  LIG A   1      20.545  17.576   4.601  1.00 20.00    +0.028 H 
ATOM     90 H90  LIG A   1      18.420  16.691   3.831  1.00 20.00    +0.043 H 
ATOM     91 H91  LIG A   1      18.586  16.305   5.533  1.00 20.00    +0.043 H 
ATOM     92 H92  LIG A   1      19.275  14.090   4.889  1.00 20.00    +0.118 HD
ATOM     93 H93  LIG A   1      19.149  14.470   3.312  1.00 20.00    +0.118 HD
ATOM     94 H94  LIG A   1      20.639  24.006   9.303  1.00 20.00    +0.068 H 
ATOM     95 H95  LIG A   1      20.829  28.402  15.954  1.00 20.00    +0.057 H 
ATOM     96 H96  LIG A   1      18.637  28.065  17.075  1.00 20.00    +0.119 HD
ATOM     97 H97  LIG A   1      19.600  29.176  17.799  1.00 20.00    +0.119 HD
ATOM     98 H98  LIG A   1      21.315  24.354  13.931  1.00 20.00    +0.189 HD
ATOM     99 H99  LIG A   1      20.387  27.377  15.110  1.00 20.00    +0.157 HD
ATOM    100 H100 LIG A   1      20.647  28.168  13.634  1.00 20.00    +0.157 HD
ATOM    101 H101 LIG A   1      20.548  26.733  11.543  1.00 20.00    +0.058 H 
ATOM    102 H102 LIG A   1      22.150  26.057  11.960  1.00 20.00    +0.058 H 
ATOM    103 H103 LIG A   1      19.746  24.296  12.111  1.00 20.00    +0.163 HD
ATOM    104 H104 LIG A   1      19.347  23.170   9.578  1.00 20.00    +0.057 H 
ATOM    105 H105 LIG A   1      20.657  21.810   8.291  1.00 20.00    +0.029 H 
ATOM    106 H106 LIG A   1      22.104  22.050   9.283  1.00 20.00    +0.029 H 
ATOM    107 H107 LIG A   1      21.658  20.219  10.604  1.00 20.00    +0.028 H 
ATOM    108 H108 LIG A   1      20.618  19.688   9.270  1.00 20.00    +0.028 H 
ATOM    109 H109 LIG A   1      18.648  20.653  10.315  1.00 20.00    +0.043 H 
ATOM    110 H110 LIG A   1      19.534  20.021  11.716  1.00 20.00    +0.043 H 
ATOM    111 H111 LIG A   1      20.550  22.095  12.019  1.00 20.00    +0.123 HD
ENDROOT
TORSDOF 0
                                                                                                                  
ENDMDL
MODEL 9
REMARK VINA RESULT:   -10.985      1.907      2.588
REMARK INTER + INTRA:         -10.985
REMARK INTER:                 -10.985
REMARK INTRA:                   0.000
REMARK UNBOUND:                 0.000
ROOT
ATOM      1 C1   LIG A   1      23.094  15.189   4.938  1.00 20.00    -0.060 C 
ATOM      2 C2   LIG A   1      22.186  16.016   5.868  1.00 20.00    -0.016 C 
ATOM      3 C3   LIG A   1      22.232  15.317   7.272  1.00 20.00    -0.023 C 
ATOM      4 C4   LIG A   1      21.634  16.133   8.382  1.00 20.00    -0.048 A 
ATOM      5 C5   LIG A   1      22.473  16.762   9.306  1.00 20.00    -0.058 A 
ATOM      6 C6   LIG A   1      22.020  17.890   9.978  1.00 20.00    -0.051 A 
ATOM      7 C7   LIG A   1      20.761  18.410   9.666  1.00 20.00    +0.017 A 
ATOM      8 C8   LIG A   1      19.834  17.599   9.002  1.00 20.00    -0.051 A 
ATOM      9 C9   LIG A   1      20.272  16.442   8.365  1.00 20.00    -0.058 A 
ATOM     10 C10  LIG A   1      20.508  19.861   9.794  1.00 20.00    +0.140 C 
ATOM     11 C11  LIG A   1      20.149  20.616   8.732  1.00 20.00    +0.047 C 
ATOM     12 C12  LIG A   1      20.278  20.286   7.276  1.00 20.00    +0.256 C 
ATOM     13 O13  LIG A   1      19.576  20.901   6.475  1.00 20.00    -0.269 OA
ATOM     14 N14  LIG A   1      21.454  19.629   6.936  1.00 20.00    -0.278 NA
ATOM     15 C15  LIG A   1      22.617  20.490   6.669  1.00 20.00    +0.029 C 
ATOM     16 C16  LIG A   1      22.918  21.610   7.694  1.00 20.00    -0.034 C 
ATOM     17 C17  LIG A   1      23.480  21.061   9.010  1.00 20.00    -0.034 C 
ATOM     18 C18  LIG A   1      23.419  22.010  10.223  1.00 20.00    +0.085 C 
ATOM     19 C19  LIG A   1      24.197  21.363  11.364  1.00 20.00    +0.311 C 
ATOM     20 O20  LIG A   1      23.884  20.380  12.013  1.00 20.00    -0.252 OA
ATOM     21 O21  LIG A   1      25.379  21.977  11.600  1.00 20.00    -0.481 OA
ATOM     22 C22  LIG A   1      22.075  22.531  10.722  1.00 20.00    +0.009 A 
ATOM     23 C23  LIG A   1      21.950  23.928  10.854  1.00 20.00    -0.052 A 
ATOM     24 C24  LIG A   1      20.798  24.529  11.386  1.00 20.00    -0.038 A 
ATOM     25 C25  LIG A   1      19.734  23.762  11.857  1.00 20.00    +0.038 A 
ATOM     26 N26  LIG A   1      18.541  24.295  12.340  1.00 20.00    -0.385 NA
ATOM     27 C27  LIG A   1      18.434  25.668  12.819  1.00 20.00    +0.016 C 
ATOM     28 C28  LIG A   1      19.085  25.833  14.193  1.00 20.00    -0.023 C 
ATOM     29 C29  LIG A   1      18.908  27.262  14.707  1.00 20.00    -0.003 C 
ATOM     30 N30  LIG A   1      19.489  27.381  16.045  1.00 20.00    -0.317 NA
ATOM     31 C31  LIG A   1      19.384  28.737  16.586  1.00 20.00    -0.005 C 
ATOM     32 C32  LIG A   1      18.413  28.795  17.769  1.00 20.00    -0.039 C 
ATOM     33 C33  LIG A   1      16.939  28.548  17.427  1.00 20.00    -0.040 C 
ATOM     34 C34  LIG A   1      16.314  29.554  16.454  1.00 20.00    -0.008 C 
ATOM     35 N35  LIG A   1      16.300  30.918  16.970  1.00 20.00    -0.330 NA
ATOM     36 C36  LIG A   1      19.834  22.377  11.702  1.00 20.00    +0.004 A 
ATOM     37 C37  LIG A   1      20.970  21.767  11.137  1.00 20.00    +0.133 A 
ATOM     38 O38  LIG A   1      20.890  20.394  11.030  1.00 20.00    -0.456 OA
ATOM     39 C39  LIG A   1      21.267  18.442   6.211  1.00 20.00    +0.246 C 
ATOM     40 O40  LIG A   1      20.146  18.065   5.847  1.00 20.00    -0.273 OA
ATOM     41 C41  LIG A   1      22.535  17.563   5.877  1.00 20.00    +0.088 C 
ATOM     42 N42  LIG A   1      23.021  17.999   4.547  1.00 20.00    -0.320 NA
ATOM     43 N43  LIG A   1      23.016  20.586   8.752  1.00 20.00    -0.287 NA
ATOM     44 C44  LIG A   1      21.993  19.789   8.773  1.00 20.00    +0.110 C 
ATOM     45 N45  LIG A   1      21.828  18.920   7.738  1.00 20.00    -0.386 NA
ATOM     46 C46  LIG A   1      21.003  19.803   9.936  1.00 20.00    +0.075 C 
ATOM     47 N47  LIG A   1      20.748  21.176  10.309  1.00 20.00    -0.348 NA
ATOM     48 C48  LIG A   1      20.160  21.496  11.514  1.00 20.00    +0.237 C 
ATOM     49 O49  LIG A   1      19.937  20.668  12.392  1.00 20.00    -0.273 OA
ATOM     50 C50  LIG A   1      19.751  22.975  11.619  1.00 20.00    +0.087 C 
ATOM     51 C51  LIG A   1      19.785  23.527  13.040  1.00 20.00    -0.027 C 
ATOM     52 C52  LIG A   1      20.534  24.849  12.935  1.00 20.00    -0.039 C 
ATOM     53 C53  LIG A   1      20.533  25.162  11.452  1.00 20.00    -0.004 C 
ATOM     54 N54  LIG A   1      20.664  23.844  10.822  1.00 20.00    -0.306 NA
ATOM     55 H55  LIG A   1      22.957  15.471   3.889  1.00 20.00    +0.023 H 
ATOM     56 H56  LIG A   1      22.856  14.122   5.012  1.00 20.00    +0.023 H 
ATOM     57 H57  LIG A   1      24.149  15.317   5.200  1.00 20.00    +0.023 H 
ATOM     58 H58  LIG A   1      21.165  15.896   5.483  1.00 20.00    +0.032 H 
ATOM     59 H59  LIG A   1      23.273  15.075   7.522  1.00 20.00    +0.032 H 
ATOM     60 H60  LIG A   1      21.707  14.355   7.217  1.00 20.00    +0.032 H 
ATOM     61 H61  LIG A   1      23.515  16.469   9.408  1.00 20.00    +0.063 H 
ATOM     62 H62  LIG A   1      22.712  18.440  10.609  1.00 20.00    +0.063 H 
ATOM     63 H63  LIG A   1      18.820  17.946   8.808  1.00 20.00    +0.063 H 
ATOM     64 H64  LIG A   1      19.591  15.922   7.693  1.00 20.00    +0.063 H 
ATOM     65 H65  LIG A   1      19.890  21.665   8.852  1.00 20.00    +0.072 H 
ATOM     66 H66  LIG A   1      22.433  20.961   5.694  1.00 20.00    +0.050 H 
ATOM     67 H67  LIG A   1      23.516  19.878   6.560  1.00 20.00    +0.050 H 
ATOM     68 H68  LIG A   1      22.037  22.238   7.858  1.00 20.00    +0.029 H 
ATOM     69 H69  LIG A   1      23.674  22.277   7.259  1.00 20.00    +0.029 H 
ATOM     70 H70  LIG A   1      23.009  20.119   9.252  1.00 20.00    +0.028 H 
ATOM     71 H71  LIG A   1      24.531  20.792   8.831  1.00 20.00    +0.028 H 
ATOM     72 H72  LIG A   1      24.010  22.886   9.916  1.00 20.00    +0.047 H 
ATOM     73 H73  LIG A   1      25.755  21.470  12.350  1.00 20.00    +0.296 HD
ATOM     74 H74  LIG A   1      22.761  24.587  10.544  1.00 20.00    +0.063 H 
ATOM     75 H75  LIG A   1      20.768  25.612  11.430  1.00 20.00    +0.064 H 
ATOM     76 H76  LIG A   1      18.020  23.634  12.912  1.00 20.00    +0.160 HD
ATOM     77 H77  LIG A   1      17.365  25.902  12.901  1.00 20.00    +0.049 H 
ATOM     78 H78  LIG A   1      18.839  26.381  12.093  1.00 20.00    +0.049 H 
ATOM     79 H79  LIG A   1      20.151  25.588  14.138  1.00 20.00    +0.030 H 
ATOM     80 H80  LIG A   1      18.635  25.122  14.900  1.00 20.00    +0.030 H 
ATOM     81 H81  LIG A   1      19.399  27.960  14.017  1.00 20.00    +0.043 H 
ATOM     82 H82  LIG A   1      17.841  27.504  14.735  1.00 20.00    +0.043 H 
ATOM     83 H83  LIG A   1      20.473  27.112  16.003  1.00 20.00    +0.122 HD
ATOM     84 H84  LIG A   1      19.128  29.480  15.821  1.00 20.00    +0.043 H 
ATOM     85 H85  LIG A   1      20.376  29.028  16.956  1.00 20.00    +0.043 H 
ATOM     86 H86  LIG A   1      18.519  29.772  18.258  1.00 20.00    +0.028 H 
ATOM     87 H87  LIG A   1      18.718  28.055  18.520  1.00 20.00    +0.028 H 
ATOM     88 H88  LIG A   1      16.364  28.556  18.362  1.00 20.00    +0.028 H 
ATOM     89 H89  LIG A   1      16.822  27.540  17.012  1.00 20.00    +0.028 H 
ATOM     90 H90  LIG A   1      15.280  29.254  16.254  1.00 20.00    +0.043 H 
ATOM     91 H91  LIG A   1      16.832  29.542  15.491  1.00 20.00    +0.043 H 
ATOM     92 H92  LIG A   1      17.252  31.233  17.151  1.00 20.00    +0.118 HD
ATOM     93 H93  LIG A   1      15.824  30.935  17.870  1.00 20.00    +0.118 HD
ATOM     94 H94  LIG A   1      19.004  21.741  12.005  1.00 20.00    +0.068 H 
ATOM     95 H95  LIG A   1      23.319  17.746   6.618  1.00 20.00    +0.057 H 
ATOM     96 H96  LIG A   1      23.116  19.008   4.488  1.00 20.00    +0.119 HD
ATOM     97 H97  LIG A   1      23.935  17.595   4.358  1.00 20.00    +0.119 HD
ATOM     98 H98  LIG A   1      22.991  21.166   9.602  1.00 20.00    +0.189 HD
ATOM     99 H99  LIG A   1      22.665  18.855   7.166  1.00 20.00    +0.157 HD
ATOM    100 H100 LIG A   1      21.421  18.018   7.957  1.00 20.00    +0.157 HD
ATOM    101 H101 LIG A   1      20.056  19.339   9.641  1.00 20.00    +0.058 H 
ATOM    102 H102 LIG A   1      21.430  19.256  10.783  1.00 20.00    +0.058 H 
ATOM    103 H103 LIG A   1      20.698  21.887   9.581  1.00 20.00    +0.163 HD
ATOM    104 H104 LIG A   1      18.738  23.057  11.205  1.00 20.00    +0.057 H 
ATOM    105 H105 LIG A   1      18.762  23.704  13.396  1.00 20.00    +0.029 H 
ATOM    106 H106 LIG A   1      20.279  22.866  13.761  1.00 20.00    +0.029 H 
ATOM    107 H107 LIG A   1      21.563  24.719  13.294  1.00 20.00    +0.028 H 
ATOM    108 H108 LIG A   1      20.066  25.639  13.530  1.00 20.00    +0.028 H 
ATOM    109 H109 LIG A   1      19.591  25.632  11.146  1.00 20.00    +0.043 H 
ATOM    110 H110 LIG A   1      21.354  25.827  11.169  1.00 20.00    +0.043 H 
ATOM    111 H111 LIG A   1      21.619  23.520  10.989  1.00 20.00    +0.123 HD
ENDROOT
TORSDOF 0
                                                                                                                  
ENDMDL
