ROOT
ATOM      1 N1   LIG A   1      -8.306   1.315  -0.574  1.00 20.00    -0.330 NA
ATOM      2 C2   LIG A   1      -7.857   0.157   0.189  1.00 20.00    -0.008 C 
ATOM      3 C3   LIG A   1      -6.559   0.430   0.952  1.00 20.00    -0.040 C 
ATOM      4 C4   LIG A   1      -5.352   0.665   0.036  1.00 20.00    -0.039 C 
ATOM      5 C5   LIG A   1      -4.055   0.957   0.802  1.00 20.00    -0.005 C 
ATOM      6 N6   LIG A   1      -3.600  -0.081   1.730  1.00 20.00    -0.317 NA
ATOM      7 C7   LIG A   1      -3.295  -1.374   1.120  1.00 20.00    -0.003 C 
ATOM      8 C8   LIG A   1      -2.138  -1.363   0.118  1.00 20.00    -0.023 C 
ATOM      9 C9   LIG A   1      -0.829  -0.864   0.733  1.00 20.00    +0.016 C 
ATOM     10 N10  LIG A   1       0.250  -1.010  -0.245  1.00 20.00    -0.385 NA
ATOM     11 C11  LIG A   1       1.537  -0.562   0.068  1.00 20.00    +0.035 A 
ATOM     12 C12  LIG A   1       1.997  -0.375   1.377  1.00 20.00    -0.038 A 
ATOM     13 C13  LIG A   1       3.321  -0.000   1.635  1.00 20.00    -0.048 A 
ATOM     14 C14  LIG A   1       4.221   0.167   0.580  1.00 20.00    +0.034 A 
ATOM     15 C15  LIG A   1       3.794  -0.050  -0.725  1.00 20.00    +0.036 A 
ATOM     16 C16  LIG A   1       2.465  -0.425  -0.975  1.00 20.00    -0.027 A 
ATOM     17 C17  LIG A   1       4.732   0.107  -1.855  1.00 20.00    +0.194 C 
ATOM     18 O18  LIG A   1       4.355  -0.072  -3.007  1.00 20.00    -0.289 OA
ATOM     19 C19  LIG A   1       6.132   0.489  -1.578  1.00 20.00    +0.034 A 
ATOM     20 C20  LIG A   1       7.034   0.634  -2.640  1.00 20.00    -0.050 A 
ATOM     21 C21  LIG A   1       8.358   0.996  -2.387  1.00 20.00    -0.061 A 
ATOM     22 C22  LIG A   1       8.785   1.214  -1.078  1.00 20.00    -0.061 A 
ATOM     23 C23  LIG A   1       7.888   1.070  -0.018  1.00 20.00    -0.050 A 
ATOM     24 C24  LIG A   1       6.558   0.707  -0.269  1.00 20.00    +0.034 A 
ATOM     25 C25  LIG A   1       5.617   0.557   0.859  1.00 20.00    +0.194 C 
ATOM     26 O26  LIG A   1       5.989   0.754   2.010  1.00 20.00    -0.289 OA
ATOM     27 O27  LIG A   1       2.420   0.105   0.310  1.00 20.00    -0.504 OA
ATOM     28 C28  LIG A   1       1.097  -0.152   0.078  1.00 20.00    +0.161 A 
ATOM     29 C29  LIG A   1       0.653  -1.394  -0.363  1.00 20.00    -0.016 A 
ATOM     30 C30  LIG A   1      -0.716  -1.595  -0.583  1.00 20.00    -0.055 A 
ATOM     31 C31  LIG A   1      -1.629  -0.558  -0.362  1.00 20.00    -0.016 A 
ATOM     32 C32  LIG A   1      -1.167   0.675   0.079  1.00 20.00    +0.161 A 
ATOM     33 O33  LIG A   1      -2.055   1.688   0.295  1.00 20.00    -0.504 OA
ATOM     34 C34  LIG A   1       0.189   0.878   0.298  1.00 20.00    +0.200 A 
ATOM     35 O35  LIG A   1       0.618   2.104   0.732  1.00 20.00    -0.502 OA
ATOM     36 H36  LIG A   1      -9.199   1.101  -1.017  1.00 20.00    +0.118 HD
ATOM     37 H37  LIG A   1      -7.657   1.504  -1.336  1.00 20.00    +0.118 HD
ATOM     38 H38  LIG A   1      -7.731  -0.700  -0.482  1.00 20.00    +0.043 H 
ATOM     39 H39  LIG A   1      -8.640  -0.107   0.909  1.00 20.00    +0.043 H 
ATOM     40 H40  LIG A   1      -6.367  -0.434   1.599  1.00 20.00    +0.028 H 
ATOM     41 H41  LIG A   1      -6.694   1.295   1.613  1.00 20.00    +0.028 H 
ATOM     42 H42  LIG A   1      -5.547   1.525  -0.615  1.00 20.00    +0.028 H 
ATOM     43 H43  LIG A   1      -5.216  -0.197  -0.628  1.00 20.00    +0.028 H 
ATOM     44 H44  LIG A   1      -4.198   1.875   1.386  1.00 20.00    +0.043 H 
ATOM     45 H45  LIG A   1      -3.259   1.193   0.086  1.00 20.00    +0.043 H 
ATOM     46 H46  LIG A   1      -4.304  -0.211   2.457  1.00 20.00    +0.122 HD
ATOM     47 H47  LIG A   1      -4.188  -1.798   0.647  1.00 20.00    +0.043 H 
ATOM     48 H48  LIG A   1      -3.035  -2.065   1.932  1.00 20.00    +0.043 H 
ATOM     49 H49  LIG A   1      -1.994  -2.387  -0.252  1.00 20.00    +0.030 H 
ATOM     50 H50  LIG A   1      -2.395  -0.761  -0.762  1.00 20.00    +0.030 H 
ATOM     51 H51  LIG A   1      -0.609  -1.460   1.626  1.00 20.00    +0.049 H 
ATOM     52 H52  LIG A   1      -0.926   0.188   1.025  1.00 20.00    +0.049 H 
ATOM     53 H53  LIG A   1      -0.027  -0.722  -1.182  1.00 20.00    +0.160 HD
ATOM     54 H54  LIG A   1       1.337  -0.516   2.228  1.00 20.00    +0.064 H 
ATOM     55 H55  LIG A   1       3.644   0.149   2.664  1.00 20.00    +0.063 H 
ATOM     56 H56  LIG A   1       2.152  -0.615  -2.000  1.00 20.00    +0.065 H 
ATOM     57 H57  LIG A   1       6.708   0.466  -3.665  1.00 20.00    +0.063 H 
ATOM     58 H58  LIG A   1       9.057   1.108  -3.213  1.00 20.00    +0.062 H 
ATOM     59 H59  LIG A   1       9.817   1.495  -0.881  1.00 20.00    +0.062 H 
ATOM     60 H60  LIG A   1       8.228   1.242   1.002  1.00 20.00    +0.063 H 
ATOM     61 H61  LIG A   1       2.923  -0.704   0.113  1.00 20.00    +0.293 HD
ATOM     62 H62  LIG A   1       1.344  -2.212  -0.541  1.00 20.00    +0.066 H 
ATOM     63 H63  LIG A   1      -1.075  -2.562  -0.927  1.00 20.00    +0.063 H 
ATOM     64 H64  LIG A   1      -2.691  -0.711  -0.531  1.00 20.00    +0.066 H 
ATOM     65 H65  LIG A   1      -1.501   2.437   0.594  1.00 20.00    +0.293 HD
ATOM     66 H66  LIG A   1       1.589   2.001   0.810  1.00 20.00    +0.293 HD
ENDROOT
TORSDOF 0
