ROOT
ATOM      1 C1   LIG A   1      -3.211   0.923  -0.079  1.00 20.00    -0.048 C 
ATOM      2 C2   LIG A   1      -2.224  -0.211   0.143  1.00 20.00    +0.015 C 
ATOM      3 N3   LIG A   1      -0.865   0.276  -0.029  1.00 20.00    -0.357 NA
ATOM      4 C4   LIG A   1       0.242  -0.524   0.022  1.00 20.00    +0.195 C 
ATOM      5 N5   LIG A   1       0.228  -1.809   0.136  1.00 20.00    -0.269 NA
ATOM      6 N6   LIG A   1       1.403   0.184  -0.079  1.00 20.00    -0.298 NA
ATOM      7 C7   LIG A   1       2.703  -0.183   0.036  1.00 20.00    +0.192 C 
ATOM      8 N8   LIG A   1       3.152  -1.347   0.353  1.00 20.00    -0.269 NA
ATOM      9 N9   LIG A   1       3.589   0.812  -0.204  1.00 20.00    -0.370 NA
ATOM     10 N10  LIG A   1      -8.304   1.317  -0.590  1.00 20.00    -0.330 NA
ATOM     11 C11  LIG A   1      -7.858   0.158   0.173  1.00 20.00    -0.008 C 
ATOM     12 C12  LIG A   1      -6.561   0.430   0.939  1.00 20.00    -0.040 C 
ATOM     13 C13  LIG A   1      -5.352   0.665   0.026  1.00 20.00    -0.039 C 
ATOM     14 C14  LIG A   1      -4.057   0.957   0.794  1.00 20.00    -0.005 C 
ATOM     15 N15  LIG A   1      -3.604  -0.081   1.722  1.00 20.00    -0.317 NA
ATOM     16 C16  LIG A   1      -3.297  -1.374   1.112  1.00 20.00    -0.003 C 
ATOM     17 C17  LIG A   1      -2.139  -1.363   0.112  1.00 20.00    -0.023 C 
ATOM     18 C18  LIG A   1      -0.831  -0.864   0.731  1.00 20.00    +0.016 C 
ATOM     19 N19  LIG A   1       0.250  -1.009  -0.245  1.00 20.00    -0.385 NA
ATOM     20 C20  LIG A   1       1.537  -0.562   0.071  1.00 20.00    +0.035 A 
ATOM     21 C21  LIG A   1       1.994  -0.376   1.381  1.00 20.00    -0.038 A 
ATOM     22 C22  LIG A   1       3.318  -0.002   1.642  1.00 20.00    -0.048 A 
ATOM     23 C23  LIG A   1       4.219   0.165   0.588  1.00 20.00    +0.034 A 
ATOM     24 C24  LIG A   1       3.795  -0.050  -0.718  1.00 20.00    +0.036 A 
ATOM     25 C25  LIG A   1       2.467  -0.425  -0.970  1.00 20.00    -0.027 A 
ATOM     26 C26  LIG A   1       4.736   0.108  -1.845  1.00 20.00    +0.194 C 
ATOM     27 O27  LIG A   1       4.362  -0.070  -2.998  1.00 20.00    -0.289 OA
ATOM     28 C28  LIG A   1       6.135   0.489  -1.565  1.00 20.00    +0.034 A 
ATOM     29 C29  LIG A   1       7.039   0.635  -2.625  1.00 20.00    -0.050 A 
ATOM     30 C30  LIG A   1       8.363   0.996  -2.370  1.00 20.00    -0.061 A 
ATOM     31 C31  LIG A   1       8.787   1.213  -1.059  1.00 20.00    -0.061 A 
ATOM     32 C32  LIG A   1       7.888   1.069  -0.001  1.00 20.00    -0.050 A 
ATOM     33 C33  LIG A   1       6.559   0.706  -0.255  1.00 20.00    +0.034 A 
ATOM     34 C34  LIG A   1       5.615   0.556   0.870  1.00 20.00    +0.194 C 
ATOM     35 O35  LIG A   1       5.985   0.752   2.022  1.00 20.00    -0.289 OA
ATOM     36 H36  LIG A   1      -3.050   1.732   0.642  1.00 20.00    +0.025 H 
ATOM     37 H37  LIG A   1      -3.104   1.344  -1.084  1.00 20.00    +0.025 H 
ATOM     38 H38  LIG A   1      -4.237   0.562   0.035  1.00 20.00    +0.025 H 
ATOM     39 H39  LIG A   1      -2.349  -0.615   1.153  1.00 20.00    +0.049 H 
ATOM     40 H40  LIG A   1      -2.432  -1.009  -0.578  1.00 20.00    +0.049 H 
ATOM     41 H41  LIG A   1      -0.727   1.182   0.405  1.00 20.00    +0.163 HD
ATOM     42 H42  LIG A   1      -0.730  -2.151   0.179  1.00 20.00    +0.191 HD
ATOM     43 H43  LIG A   1       1.288   1.164  -0.271  1.00 20.00    +0.173 HD
ATOM     44 H44  LIG A   1       2.306  -1.939   0.471  1.00 20.00    +0.191 HD
ATOM     45 H45  LIG A   1       4.521   0.412  -0.115  1.00 20.00    +0.159 HD
ATOM     46 H46  LIG A   1       3.499   1.193  -1.138  1.00 20.00    +0.159 HD
ATOM     47 H47  LIG A   1      -9.197   1.103  -1.034  1.00 20.00    +0.118 HD
ATOM     48 H48  LIG A   1      -7.654   1.506  -1.351  1.00 20.00    +0.118 HD
ATOM     49 H49  LIG A   1      -7.730  -0.698  -0.499  1.00 20.00    +0.043 H 
ATOM     50 H50  LIG A   1      -8.641  -0.107   0.891  1.00 20.00    +0.043 H 
ATOM     51 H51  LIG A   1      -6.370  -0.434   1.585  1.00 20.00    +0.028 H 
ATOM     52 H52  LIG A   1      -6.697   1.295   1.601  1.00 20.00    +0.028 H 
ATOM     53 H53  LIG A   1      -5.546   1.526  -0.625  1.00 20.00    +0.028 H 
ATOM     54 H54  LIG A   1      -5.215  -0.195  -0.639  1.00 20.00    +0.028 H 
ATOM     55 H55  LIG A   1      -4.200   1.875   1.378  1.00 20.00    +0.043 H 
ATOM     56 H56  LIG A   1      -3.259   1.194   0.081  1.00 20.00    +0.043 H 
ATOM     57 H57  LIG A   1      -4.309  -0.212   2.448  1.00 20.00    +0.122 HD
ATOM     58 H58  LIG A   1      -4.189  -1.798   0.637  1.00 20.00    +0.043 H 
ATOM     59 H59  LIG A   1      -3.039  -2.066   1.924  1.00 20.00    +0.043 H 
ATOM     60 H60  LIG A   1      -1.994  -2.386  -0.258  1.00 20.00    +0.030 H 
ATOM     61 H61  LIG A   1      -2.394  -0.760  -0.768  1.00 20.00    +0.030 H 
ATOM     62 H62  LIG A   1      -0.613  -1.461   1.624  1.00 20.00    +0.049 H 
ATOM     63 H63  LIG A   1      -0.928   0.188   1.024  1.00 20.00    +0.049 H 
ATOM     64 H64  LIG A   1      -0.025  -0.721  -1.182  1.00 20.00    +0.160 HD
ATOM     65 H65  LIG A   1       1.332  -0.517   2.230  1.00 20.00    +0.064 H 
ATOM     66 H66  LIG A   1       3.639   0.147   2.671  1.00 20.00    +0.063 H 
ATOM     67 H67  LIG A   1       2.156  -0.614  -1.997  1.00 20.00    +0.065 H 
ATOM     68 H68  LIG A   1       6.716   0.467  -3.651  1.00 20.00    +0.063 H 
ATOM     69 H69  LIG A   1       9.064   1.108  -3.194  1.00 20.00    +0.062 H 
ATOM     70 H70  LIG A   1       9.819   1.495  -0.860  1.00 20.00    +0.062 H 
ATOM     71 H71  LIG A   1       8.226   1.240   1.020  1.00 20.00    +0.063 H 
ENDROOT
TORSDOF 0
