ROOT
ATOM      1 C1   LIG A   1       9.433  -0.644   0.221  1.00 20.00    -0.060 C 
ATOM      2 C2   LIG A   1       7.986  -1.147   0.075  1.00 20.00    -0.016 C 
ATOM      3 C3   LIG A   1       7.572  -1.731   1.470  1.00 20.00    -0.023 C 
ATOM      4 C4   LIG A   1       6.103  -2.024   1.598  1.00 20.00    -0.048 A 
ATOM      5 C5   LIG A   1       5.292  -1.173   2.354  1.00 20.00    -0.058 A 
ATOM      6 C6   LIG A   1       3.934  -1.098   2.073  1.00 20.00    -0.051 A 
ATOM      7 C7   LIG A   1       3.418  -1.825   0.996  1.00 20.00    +0.017 A 
ATOM      8 C8   LIG A   1       4.162  -2.892   0.478  1.00 20.00    -0.051 A 
ATOM      9 C9   LIG A   1       5.514  -3.001   0.792  1.00 20.00    -0.058 A 
ATOM     10 C10  LIG A   1       2.245  -1.316   0.257  1.00 20.00    +0.140 C 
ATOM     11 C11  LIG A   1       2.309  -1.029  -1.063  1.00 20.00    +0.047 C 
ATOM     12 C12  LIG A   1       3.533  -0.813  -1.904  1.00 20.00    +0.256 C 
ATOM     13 O13  LIG A   1       3.429  -0.929  -3.123  1.00 20.00    -0.269 OA
ATOM     14 N14  LIG A   1       4.548  -0.103  -1.273  1.00 20.00    -0.278 NA
ATOM     15 C15  LIG A   1       4.448   1.363  -1.350  1.00 20.00    +0.029 C 
ATOM     16 C16  LIG A   1       3.074   1.996  -1.021  1.00 20.00    -0.034 C 
ATOM     17 C17  LIG A   1       2.752   1.939   0.476  1.00 20.00    -0.034 C 
ATOM     18 C18  LIG A   1       1.274   2.149   0.858  1.00 20.00    +0.085 C 
ATOM     19 C19  LIG A   1       1.186   2.263   2.373  1.00 20.00    +0.311 C 
ATOM     20 O20  LIG A   1       1.441   1.402   3.199  1.00 20.00    -0.252 OA
ATOM     21 O21  LIG A   1       0.801   3.492   2.781  1.00 20.00    -0.481 OA
ATOM     22 C22  LIG A   1       0.205   1.190   0.337  1.00 20.00    +0.009 A 
ATOM     23 C23  LIG A   1      -0.895   1.771  -0.323  1.00 20.00    -0.052 A 
ATOM     24 C24  LIG A   1      -1.991   1.009  -0.755  1.00 20.00    -0.038 A 
ATOM     25 C25  LIG A   1      -2.066  -0.360  -0.507  1.00 20.00    +0.038 A 
ATOM     26 N26  LIG A   1      -3.100  -1.179  -0.951  1.00 20.00    -0.385 NA
ATOM     27 C27  LIG A   1      -4.388  -0.657  -1.392  1.00 20.00    +0.016 C 
ATOM     28 C28  LIG A   1      -5.246  -0.204  -0.211  1.00 20.00    -0.023 C 
ATOM     29 C29  LIG A   1      -6.586   0.348  -0.700  1.00 20.00    -0.003 C 
ATOM     30 N30  LIG A   1      -7.417   0.726   0.443  1.00 20.00    -0.317 NA
ATOM     31 C31  LIG A   1      -8.681   1.339   0.036  1.00 20.00    -0.005 C 
ATOM     32 C32  LIG A   1      -9.877   0.514   0.524  1.00 20.00    -0.039 C 
ATOM     33 C33  LIG A   1     -10.006  -0.879  -0.104  1.00 20.00    -0.040 C 
ATOM     34 C34  LIG A   1     -10.219  -0.893  -1.620  1.00 20.00    -0.008 C 
ATOM     35 N35  LIG A   1     -11.476  -0.271  -2.024  1.00 20.00    -0.330 NA
ATOM     36 C36  LIG A   1      -0.962  -0.952   0.112  1.00 20.00    +0.004 A 
ATOM     37 C37  LIG A   1       0.159  -0.204   0.516  1.00 20.00    +0.133 A 
ATOM     38 O38  LIG A   1       1.177  -0.945   1.079  1.00 20.00    -0.456 OA
ATOM     39 C39  LIG A   1       5.803  -0.728  -1.307  1.00 20.00    +0.246 C 
ATOM     40 O40  LIG A   1       5.993  -1.787  -1.918  1.00 20.00    -0.273 OA
ATOM     41 C41  LIG A   1       6.994  -0.058  -0.514  1.00 20.00    +0.088 C 
ATOM     42 N42  LIG A   1       7.696   0.836  -1.464  1.00 20.00    -0.320 NA
ATOM     43 O43  LIG A   1       1.595  -1.684  -0.494  1.00 20.00    -0.504 OA
ATOM     44 C44  LIG A   1       0.585  -0.797  -0.255  1.00 20.00    +0.157 A 
ATOM     45 C45  LIG A   1      -0.729  -1.227  -0.381  1.00 20.00    -0.016 A 
ATOM     46 C46  LIG A   1      -1.767  -0.344  -0.073  1.00 20.00    -0.058 A 
ATOM     47 C47  LIG A   1      -1.482   0.955   0.359  1.00 20.00    -0.058 A 
ATOM     48 C48  LIG A   1      -0.158   1.385   0.467  1.00 20.00    -0.016 A 
ATOM     49 C49  LIG A   1       0.867   0.508   0.141  1.00 20.00    +0.157 A 
ATOM     50 O50  LIG A   1       2.157   0.955   0.182  1.00 20.00    -0.504 OA
ATOM     51 H51  LIG A   1       9.873  -0.400  -0.750  1.00 20.00    +0.023 H 
ATOM     52 H52  LIG A   1      10.068  -1.417   0.668  1.00 20.00    +0.023 H 
ATOM     53 H53  LIG A   1       9.483   0.243   0.861  1.00 20.00    +0.023 H 
ATOM     54 H54  LIG A   1       8.027  -1.990  -0.628  1.00 20.00    +0.032 H 
ATOM     55 H55  LIG A   1       7.867  -1.027   2.260  1.00 20.00    +0.032 H 
ATOM     56 H56  LIG A   1       8.138  -2.653   1.664  1.00 20.00    +0.032 H 
ATOM     57 H57  LIG A   1       5.724  -0.470   3.062  1.00 20.00    +0.063 H 
ATOM     58 H58  LIG A   1       3.330  -0.353   2.586  1.00 20.00    +0.063 H 
ATOM     59 H59  LIG A   1       3.758  -3.527  -0.309  1.00 20.00    +0.063 H 
ATOM     60 H60  LIG A   1       6.127  -3.712   0.239  1.00 20.00    +0.063 H 
ATOM     61 H61  LIG A   1       1.424  -0.726  -1.614  1.00 20.00    +0.072 H 
ATOM     62 H62  LIG A   1       4.708   1.636  -2.381  1.00 20.00    +0.050 H 
ATOM     63 H63  LIG A   1       5.198   1.823  -0.701  1.00 20.00    +0.050 H 
ATOM     64 H64  LIG A   1       2.281   1.548  -1.626  1.00 20.00    +0.029 H 
ATOM     65 H65  LIG A   1       3.107   3.052  -1.317  1.00 20.00    +0.029 H 
ATOM     66 H66  LIG A   1       3.119   1.017   0.904  1.00 20.00    +0.028 H 
ATOM     67 H67  LIG A   1       3.351   2.717   0.970  1.00 20.00    +0.028 H 
ATOM     68 H68  LIG A   1       1.032   3.148   0.466  1.00 20.00    +0.047 H 
ATOM     69 H69  LIG A   1       0.766   3.412   3.758  1.00 20.00    +0.296 HD
ATOM     70 H70  LIG A   1      -0.925   2.845  -0.507  1.00 20.00    +0.063 H 
ATOM     71 H71  LIG A   1      -2.790   1.528  -1.275  1.00 20.00    +0.064 H 
ATOM     72 H72  LIG A   1      -3.179  -2.040  -0.415  1.00 20.00    +0.160 HD
ATOM     73 H73  LIG A   1      -4.907  -1.467  -1.918  1.00 20.00    +0.049 H 
ATOM     74 H74  LIG A   1      -4.262   0.144  -2.129  1.00 20.00    +0.049 H 
ATOM     75 H75  LIG A   1      -4.721   0.565   0.368  1.00 20.00    +0.030 H 
ATOM     76 H76  LIG A   1      -5.412  -1.050   0.467  1.00 20.00    +0.030 H 
ATOM     77 H77  LIG A   1      -6.406   1.215  -1.344  1.00 20.00    +0.043 H 
ATOM     78 H78  LIG A   1      -7.098  -0.417  -1.293  1.00 20.00    +0.043 H 
ATOM     79 H79  LIG A   1      -6.899   1.379   1.033  1.00 20.00    +0.122 HD
ATOM     80 H80  LIG A   1      -8.741   1.516  -1.045  1.00 20.00    +0.043 H 
ATOM     81 H81  LIG A   1      -8.741   2.331   0.502  1.00 20.00    +0.043 H 
ATOM     82 H82  LIG A   1     -10.795   1.088   0.349  1.00 20.00    +0.028 H 
ATOM     83 H83  LIG A   1      -9.806   0.395   1.613  1.00 20.00    +0.028 H 
ATOM     84 H84  LIG A   1     -10.844  -1.398   0.379  1.00 20.00    +0.028 H 
ATOM     85 H85  LIG A   1      -9.112  -1.470   0.129  1.00 20.00    +0.028 H 
ATOM     86 H86  LIG A   1     -10.226  -1.933  -1.969  1.00 20.00    +0.043 H 
ATOM     87 H87  LIG A   1      -9.393  -0.399  -2.139  1.00 20.00    +0.043 H 
ATOM     88 H88  LIG A   1     -11.507   0.698  -1.715  1.00 20.00    +0.118 HD
ATOM     89 H89  LIG A   1     -12.251  -0.742  -1.559  1.00 20.00    +0.118 HD
ATOM     90 H90  LIG A   1      -0.949  -2.028   0.275  1.00 20.00    +0.068 H 
ATOM     91 H91  LIG A   1       6.598   0.544   0.310  1.00 20.00    +0.057 H 
ATOM     92 H92  LIG A   1       7.050   1.455  -1.943  1.00 20.00    +0.119 HD
ATOM     93 H93  LIG A   1       8.358   1.424  -0.962  1.00 20.00    +0.119 HD
ATOM     94 H94  LIG A   1       2.310  -1.448   0.125  1.00 20.00    +0.293 HD
ATOM     95 H95  LIG A   1      -0.945  -2.242  -0.698  1.00 20.00    +0.066 H 
ATOM     96 H96  LIG A   1      -2.800  -0.672  -0.160  1.00 20.00    +0.062 H 
ATOM     97 H97  LIG A   1      -2.293   1.637   0.604  1.00 20.00    +0.062 H 
ATOM     98 H98  LIG A   1       0.067   2.398   0.785  1.00 20.00    +0.066 H 
ATOM     99 H99  LIG A   1       2.593   0.577  -0.604  1.00 20.00    +0.293 HD
ENDROOT
TORSDOF 0
