ROOT
ATOM      1 C1   LIG A   1      -7.995   0.163  -0.145  1.00 20.00    -0.060 C 
ATOM      2 C2   LIG A   1      -6.549  -0.344  -0.302  1.00 20.00    -0.016 C 
ATOM      3 C3   LIG A   1      -5.620   0.854  -0.631  1.00 20.00    -0.023 C 
ATOM      4 C4   LIG A   1      -4.352   0.508  -1.397  1.00 20.00    -0.046 C 
ATOM      5 C5   LIG A   1      -3.247   1.273  -1.552  1.00 20.00    -0.059 C 
ATOM      6 C6   LIG A   1      -2.840   2.284  -0.586  1.00 20.00    -0.054 C 
ATOM      7 C7   LIG A   1      -1.548   2.430  -0.196  1.00 20.00    +0.009 C 
ATOM      8 C8   LIG A   1      -0.456   2.085  -1.072  1.00 20.00    +0.131 A 
ATOM      9 C9   LIG A   1      -0.267   2.331  -2.428  1.00 20.00    -0.015 A 
ATOM     10 C10  LIG A   1       1.010   1.837  -2.789  1.00 20.00    -0.015 A 
ATOM     11 C11  LIG A   1       1.571   1.333  -1.638  1.00 20.00    +0.134 A 
ATOM     12 C12  LIG A   1       2.857   0.726  -1.301  1.00 20.00    +0.017 A 
ATOM     13 C13  LIG A   1       3.771   0.377  -2.302  1.00 20.00    -0.049 A 
ATOM     14 C14  LIG A   1       5.021  -0.176  -1.981  1.00 20.00    -0.038 A 
ATOM     15 C15  LIG A   1       5.389  -0.419  -0.655  1.00 20.00    +0.034 A 
ATOM     16 N16  LIG A   1       6.648  -0.876  -0.274  1.00 20.00    -0.385 NA
ATOM     17 C17  LIG A   1       7.517  -1.561  -1.226  1.00 20.00    +0.022 C 
ATOM     18 C18  LIG A   1       8.798  -2.023  -0.539  1.00 20.00    +0.022 C 
ATOM     19 C19  LIG A   1       8.641  -3.219   0.385  1.00 20.00    +0.092 C 
ATOM     20 N20  LIG A   1       9.675  -3.905   0.752  1.00 20.00    -0.289 NA
ATOM     21 N21  LIG A   1       7.437  -3.595   0.893  1.00 20.00    -0.388 NA
ATOM     22 C22  LIG A   1       4.482  -0.044   0.344  1.00 20.00    -0.038 A 
ATOM     23 C23  LIG A   1       3.233   0.507   0.029  1.00 20.00    -0.049 A 
ATOM     24 O24  LIG A   1       0.688   1.477  -0.611  1.00 20.00    -0.456 OA
ATOM     25 C25  LIG A   1      -1.297   2.786   1.272  1.00 20.00    +0.085 C 
ATOM     26 C26  LIG A   1      -0.161   3.801   1.353  1.00 20.00    +0.311 C 
ATOM     27 O27  LIG A   1      -0.133   4.889   0.795  1.00 20.00    -0.252 OA
ATOM     28 O28  LIG A   1       0.873   3.434   2.133  1.00 20.00    -0.481 OA
ATOM     29 C29  LIG A   1      -1.062   1.503   2.124  1.00 20.00    -0.034 C 
ATOM     30 C30  LIG A   1      -2.295   0.582   2.239  1.00 20.00    -0.034 C 
ATOM     31 C31  LIG A   1      -2.275  -0.715   1.383  1.00 20.00    +0.025 C 
ATOM     32 N32  LIG A   1      -3.591  -1.059   0.790  1.00 20.00    -0.318 NA
ATOM     33 C33  LIG A   1      -3.605  -1.598  -0.493  1.00 20.00    +0.007 C 
ATOM     34 C34  LIG A   1      -4.058  -0.913  -1.559  1.00 20.00    -0.043 C 
ATOM     35 C35  LIG A   1      -4.735  -0.980   1.585  1.00 20.00    +0.243 C 
ATOM     36 O36  LIG A   1      -4.659  -0.807   2.809  1.00 20.00    -0.273 OA
ATOM     37 C37  LIG A   1      -6.148  -1.157   0.961  1.00 20.00    +0.088 C 
ATOM     38 N38  LIG A   1      -6.472  -2.597   0.810  1.00 20.00    -0.320 NA
ATOM     39 N39  LIG A   1       3.149  -0.775  -0.334  1.00 20.00    -0.328 NA
ATOM     40 C40  LIG A   1       1.788  -0.337  -0.638  1.00 20.00    +0.016 C 
ATOM     41 C41  LIG A   1       1.115   0.388   0.536  1.00 20.00    +0.059 C 
ATOM     42 O42  LIG A   1      -0.155   0.931   0.173  1.00 20.00    -0.378 OA
ATOM     43 C43  LIG A   1      -1.203  -0.035   0.180  1.00 20.00    +0.070 C 
ATOM     44 C44  LIG A   1      -2.510   0.639  -0.220  1.00 20.00    +0.067 C 
ATOM     45 O45  LIG A   1      -3.595  -0.279  -0.161  1.00 20.00    -0.394 OA
ATOM     46 H46  LIG A   1      -8.075   0.889   0.671  1.00 20.00    +0.023 H 
ATOM     47 H47  LIG A   1      -8.338   0.650  -1.064  1.00 20.00    +0.023 H 
ATOM     48 H48  LIG A   1      -8.681  -0.665   0.064  1.00 20.00    +0.023 H 
ATOM     49 H49  LIG A   1      -6.581  -1.016  -1.171  1.00 20.00    +0.032 H 
ATOM     50 H50  LIG A   1      -6.172   1.555  -1.272  1.00 20.00    +0.032 H 
ATOM     51 H51  LIG A   1      -5.398   1.395   0.295  1.00 20.00    +0.032 H 
ATOM     52 H52  LIG A   1      -2.428   0.825  -2.118  1.00 20.00    +0.063 H 
ATOM     53 H53  LIG A   1      -3.621   2.614   0.096  1.00 20.00    +0.063 H 
ATOM     54 H54  LIG A   1      -0.975   2.831  -3.076  1.00 20.00    +0.066 H 
ATOM     55 H55  LIG A   1       1.470   1.877  -3.766  1.00 20.00    +0.066 H 
ATOM     56 H56  LIG A   1       3.535   0.543  -3.350  1.00 20.00    +0.063 H 
ATOM     57 H57  LIG A   1       5.701  -0.397  -2.798  1.00 20.00    +0.064 H 
ATOM     58 H58  LIG A   1       6.658  -1.286   0.662  1.00 20.00    +0.160 HD
ATOM     59 H59  LIG A   1       7.795  -0.868  -2.030  1.00 20.00    +0.049 H 
ATOM     60 H60  LIG A   1       6.998  -2.416  -1.675  1.00 20.00    +0.049 H 
ATOM     61 H61  LIG A   1       9.242  -1.207   0.044  1.00 20.00    +0.037 H 
ATOM     62 H62  LIG A   1       9.526  -2.303  -1.310  1.00 20.00    +0.037 H 
ATOM     63 H63  LIG A   1      10.532  -3.516   0.343  1.00 20.00    +0.189 HD
ATOM     64 H64  LIG A   1       6.622  -3.517   0.293  1.00 20.00    +0.157 HD
ATOM     65 H65  LIG A   1       7.501  -4.503   1.348  1.00 20.00    +0.157 HD
ATOM     66 H66  LIG A   1       4.745  -0.166   1.392  1.00 20.00    +0.064 H 
ATOM     67 H67  LIG A   1       2.565   0.783   0.844  1.00 20.00    +0.063 H 
ATOM     68 H68  LIG A   1      -2.164   3.308   1.700  1.00 20.00    +0.047 H 
ATOM     69 H69  LIG A   1       1.512   4.170   2.025  1.00 20.00    +0.296 HD
ATOM     70 H70  LIG A   1      -0.191   0.937   1.773  1.00 20.00    +0.028 H 
ATOM     71 H71  LIG A   1      -0.811   1.829   3.143  1.00 20.00    +0.028 H 
ATOM     72 H72  LIG A   1      -3.199   1.172   2.053  1.00 20.00    +0.029 H 
ATOM     73 H73  LIG A   1      -2.362   0.265   3.289  1.00 20.00    +0.029 H 
ATOM     74 H74  LIG A   1      -1.546  -0.617   0.570  1.00 20.00    +0.050 H 
ATOM     75 H75  LIG A   1      -1.969  -1.562   2.008  1.00 20.00    +0.050 H 
ATOM     76 H76  LIG A   1      -3.164  -2.586  -0.596  1.00 20.00    +0.082 H 
ATOM     77 H77  LIG A   1      -4.046  -1.333  -2.560  1.00 20.00    +0.064 H 
ATOM     78 H78  LIG A   1      -6.814  -0.810   1.766  1.00 20.00    +0.057 H 
ATOM     79 H79  LIG A   1      -5.815  -3.015   0.154  1.00 20.00    +0.119 HD
ATOM     80 H80  LIG A   1      -6.301  -3.054   1.708  1.00 20.00    +0.119 HD
ATOM     81 H81  LIG A   1       3.724   0.034  -0.099  1.00 20.00    +0.118 HD
ATOM     82 H82  LIG A   1       3.147  -1.374   0.491  1.00 20.00    +0.118 HD
ATOM     83 H83  LIG A   1       1.806   0.322  -1.514  1.00 20.00    +0.045 H 
ATOM     84 H84  LIG A   1       1.197  -1.211  -0.932  1.00 20.00    +0.045 H 
ATOM     85 H85  LIG A   1       1.739   1.237   0.839  1.00 20.00    +0.058 H 
ATOM     86 H86  LIG A   1       1.016  -0.267   1.410  1.00 20.00    +0.058 H 
ATOM     87 H87  LIG A   1      -0.987  -0.851  -0.517  1.00 20.00    +0.059 H 
ATOM     88 H88  LIG A   1      -1.303  -0.470   1.182  1.00 20.00    +0.059 H 
ATOM     89 H89  LIG A   1      -2.438   1.025  -1.242  1.00 20.00    +0.059 H 
ATOM     90 H90  LIG A   1      -2.728   1.494   0.429  1.00 20.00    +0.059 H 
ATOM     91 H91  LIG A   1      -3.762  -0.470   0.778  1.00 20.00    +0.210 HD
ENDROOT
TORSDOF 0
