ROOT
ATOM      1 C1   LIG A   1       9.403  -0.652   0.278  1.00 20.00    -0.060 C 
ATOM      2 C2   LIG A   1       7.955  -1.162   0.150  1.00 20.00    -0.016 C 
ATOM      3 C3   LIG A   1       7.526  -1.648   1.578  1.00 20.00    -0.023 C 
ATOM      4 C4   LIG A   1       6.055  -1.924   1.713  1.00 20.00    -0.048 A 
ATOM      5 C5   LIG A   1       5.245  -1.021   2.407  1.00 20.00    -0.058 A 
ATOM      6 C6   LIG A   1       3.889  -0.959   2.115  1.00 20.00    -0.051 A 
ATOM      7 C7   LIG A   1       3.377  -1.752   1.085  1.00 20.00    +0.017 A 
ATOM      8 C8   LIG A   1       4.117  -2.855   0.643  1.00 20.00    -0.051 A 
ATOM      9 C9   LIG A   1       5.465  -2.950   0.971  1.00 20.00    -0.058 A 
ATOM     10 C10  LIG A   1       2.214  -1.286   0.302  1.00 20.00    +0.140 C 
ATOM     11 C11  LIG A   1       2.289  -1.087  -1.033  1.00 20.00    +0.047 C 
ATOM     12 C12  LIG A   1       3.518  -0.935  -1.879  1.00 20.00    +0.256 C 
ATOM     13 O13  LIG A   1       3.417  -1.128  -3.090  1.00 20.00    -0.269 OA
ATOM     14 N14  LIG A   1       4.535  -0.192  -1.291  1.00 20.00    -0.278 NA
ATOM     15 C15  LIG A   1       4.446   1.266  -1.472  1.00 20.00    +0.029 C 
ATOM     16 C16  LIG A   1       3.078   1.931  -1.179  1.00 20.00    -0.034 C 
ATOM     17 C17  LIG A   1       2.760   1.970   0.319  1.00 20.00    -0.034 C 
ATOM     18 C18  LIG A   1       1.286   2.215   0.696  1.00 20.00    +0.085 C 
ATOM     19 C19  LIG A   1       1.213   2.406   2.206  1.00 20.00    +0.311 C 
ATOM     20 O20  LIG A   1       1.262   1.548   3.072  1.00 20.00    -0.252 OA
ATOM     21 O21  LIG A   1       1.131   3.708   2.558  1.00 20.00    -0.481 OA
ATOM     22 C22  LIG A   1       0.205   1.245   0.224  1.00 20.00    +0.009 A 
ATOM     23 C23  LIG A   1      -0.885   1.806  -0.471  1.00 20.00    -0.052 A 
ATOM     24 C24  LIG A   1      -1.989   1.037  -0.871  1.00 20.00    -0.038 A 
ATOM     25 C25  LIG A   1      -2.082  -0.317  -0.558  1.00 20.00    +0.038 A 
ATOM     26 N26  LIG A   1      -3.122  -1.145  -0.972  1.00 20.00    -0.385 NA
ATOM     27 C27  LIG A   1      -4.421  -0.622  -1.383  1.00 20.00    +0.016 C 
ATOM     28 C28  LIG A   1      -5.241  -0.153  -0.180  1.00 20.00    -0.023 C 
ATOM     29 C29  LIG A   1      -6.613   0.357  -0.625  1.00 20.00    -0.003 C 
ATOM     30 N30  LIG A   1      -7.398   0.752   0.545  1.00 20.00    -0.317 NA
ATOM     31 C31  LIG A   1      -8.711   1.291   0.186  1.00 20.00    -0.005 C 
ATOM     32 C32  LIG A   1      -9.843   0.359   0.629  1.00 20.00    -0.039 C 
ATOM     33 C33  LIG A   1      -9.906  -0.993  -0.091  1.00 20.00    -0.040 C 
ATOM     34 C34  LIG A   1     -10.136  -0.920  -1.603  1.00 20.00    -0.008 C 
ATOM     35 N35  LIG A   1     -11.416  -0.319  -1.959  1.00 20.00    -0.330 NA
ATOM     36 C36  LIG A   1      -0.988  -0.893   0.096  1.00 20.00    +0.004 A 
ATOM     37 C37  LIG A   1       0.138  -0.138   0.473  1.00 20.00    +0.133 A 
ATOM     38 O38  LIG A   1       1.138  -0.863   1.088  1.00 20.00    -0.456 OA
ATOM     39 C39  LIG A   1       5.784  -0.829  -1.273  1.00 20.00    +0.246 C 
ATOM     40 O40  LIG A   1       5.968  -1.929  -1.806  1.00 20.00    -0.273 OA
ATOM     41 C41  LIG A   1       6.976  -0.113  -0.525  1.00 20.00    +0.088 C 
ATOM     42 N42  LIG A   1       7.694   0.698  -1.535  1.00 20.00    -0.320 NA
ATOM     43 O43  LIG A   1       3.452   0.838  -0.508  1.00 20.00    -0.251 OA
ATOM     44 C44  LIG A   1       2.377   0.809   0.069  1.00 20.00    +0.317 C 
ATOM     45 O45  LIG A   1       1.990   1.850   0.842  1.00 20.00    -0.480 OA
ATOM     46 C46  LIG A   1       1.400  -0.360   0.095  1.00 20.00    +0.094 C 
ATOM     47 N47  LIG A   1       0.009   0.125   0.181  1.00 20.00    -0.306 NA
ATOM     48 C48  LIG A   1      -0.919  -0.980   0.449  1.00 20.00    +0.005 C 
ATOM     49 C49  LIG A   1      -2.378  -0.508   0.504  1.00 20.00    +0.003 C 
ATOM     50 S50  LIG A   1      -2.938   0.172  -1.089  1.00 20.00    -0.178 SA
ATOM     51 H51  LIG A   1       9.862  -0.496  -0.703  1.00 20.00    +0.023 H 
ATOM     52 H52  LIG A   1      10.027  -1.384   0.805  1.00 20.00    +0.023 H 
ATOM     53 H53  LIG A   1       9.444   0.288   0.837  1.00 20.00    +0.023 H 
ATOM     54 H54  LIG A   1       8.001  -2.052  -0.491  1.00 20.00    +0.032 H 
ATOM     55 H55  LIG A   1       7.822  -0.896   2.321  1.00 20.00    +0.032 H 
ATOM     56 H56  LIG A   1       8.083  -2.559   1.837  1.00 20.00    +0.032 H 
ATOM     57 H57  LIG A   1       5.677  -0.275   3.070  1.00 20.00    +0.063 H 
ATOM     58 H58  LIG A   1       3.285  -0.182   2.576  1.00 20.00    +0.063 H 
ATOM     59 H59  LIG A   1       3.714  -3.538  -0.104  1.00 20.00    +0.063 H 
ATOM     60 H60  LIG A   1       6.077  -3.698   0.470  1.00 20.00    +0.063 H 
ATOM     61 H61  LIG A   1       1.408  -0.818  -1.610  1.00 20.00    +0.072 H 
ATOM     62 H62  LIG A   1       4.702   1.463  -2.521  1.00 20.00    +0.050 H 
ATOM     63 H63  LIG A   1       5.203   1.765  -0.862  1.00 20.00    +0.050 H 
ATOM     64 H64  LIG A   1       2.280   1.452  -1.753  1.00 20.00    +0.029 H 
ATOM     65 H65  LIG A   1       3.117   2.966  -1.542  1.00 20.00    +0.029 H 
ATOM     66 H66  LIG A   1       3.121   1.073   0.801  1.00 20.00    +0.028 H 
ATOM     67 H67  LIG A   1       3.370   2.771   0.762  1.00 20.00    +0.028 H 
ATOM     68 H68  LIG A   1       1.044   3.195   0.259  1.00 20.00    +0.047 H 
ATOM     69 H69  LIG A   1       1.079   3.680   3.537  1.00 20.00    +0.296 HD
ATOM     70 H70  LIG A   1      -0.899   2.868  -0.711  1.00 20.00    +0.063 H 
ATOM     71 H71  LIG A   1      -2.778   1.539  -1.421  1.00 20.00    +0.064 H 
ATOM     72 H72  LIG A   1      -3.197  -1.988  -0.407  1.00 20.00    +0.160 HD
ATOM     73 H73  LIG A   1      -4.959  -1.438  -1.881  1.00 20.00    +0.049 H 
ATOM     74 H74  LIG A   1      -4.317   0.168  -2.134  1.00 20.00    +0.049 H 
ATOM     75 H75  LIG A   1      -4.707   0.642   0.355  1.00 20.00    +0.030 H 
ATOM     76 H76  LIG A   1      -5.360  -0.983   0.527  1.00 20.00    +0.030 H 
ATOM     77 H77  LIG A   1      -6.481   1.211  -1.301  1.00 20.00    +0.043 H 
ATOM     78 H78  LIG A   1      -7.128  -0.437  -1.175  1.00 20.00    +0.043 H 
ATOM     79 H79  LIG A   1      -6.878   1.457   1.069  1.00 20.00    +0.122 HD
ATOM     80 H80  LIG A   1      -8.791   1.540  -0.878  1.00 20.00    +0.043 H 
ATOM     81 H81  LIG A   1      -8.838   2.241   0.721  1.00 20.00    +0.043 H 
ATOM     82 H82  LIG A   1     -10.798   0.886   0.509  1.00 20.00    +0.028 H 
ATOM     83 H83  LIG A   1      -9.746   0.168   1.706  1.00 20.00    +0.028 H 
ATOM     84 H84  LIG A   1     -10.712  -1.586   0.362  1.00 20.00    +0.028 H 
ATOM     85 H85  LIG A   1      -8.982  -1.551   0.099  1.00 20.00    +0.028 H 
ATOM     86 H86  LIG A   1     -10.109  -1.936  -2.012  1.00 20.00    +0.043 H 
ATOM     87 H87  LIG A   1      -9.333  -0.366  -2.097  1.00 20.00    +0.043 H 
ATOM     88 H88  LIG A   1     -11.462   0.638  -1.615  1.00 20.00    +0.118 HD
ATOM     89 H89  LIG A   1     -12.169  -0.823  -1.491  1.00 20.00    +0.118 HD
ATOM     90 H90  LIG A   1      -0.991  -1.959   0.312  1.00 20.00    +0.068 H 
ATOM     91 H91  LIG A   1       6.581   0.553   0.249  1.00 20.00    +0.057 H 
ATOM     92 H92  LIG A   1       7.058   1.266  -2.089  1.00 20.00    +0.119 HD
ATOM     93 H93  LIG A   1       8.347   1.330  -1.079  1.00 20.00    +0.119 HD
ATOM     94 H94  LIG A   1       2.709   2.505   0.719  1.00 20.00    +0.296 HD
ATOM     95 H95  LIG A   1       1.530  -0.932  -0.829  1.00 20.00    +0.055 H 
ATOM     96 H96  LIG A   1       1.662  -0.982   0.957  1.00 20.00    +0.055 H 
ATOM     97 H97  LIG A   1      -0.036   0.820   0.931  1.00 20.00    +0.123 HD
ATOM     98 H98  LIG A   1      -0.814  -1.756  -0.319  1.00 20.00    +0.044 H 
ATOM     99 H99  LIG A   1      -0.671  -1.439   1.414  1.00 20.00    +0.044 H 
ATOM    100 H100 LIG A   1      -3.032  -1.345   0.769  1.00 20.00    +0.039 H 
ATOM    101 H101 LIG A   1      -2.500   0.265   1.271  1.00 20.00    +0.039 H 
ATOM    102 H102 LIG A   1      -1.841   0.919  -1.296  1.00 20.00    +0.102 HD
ENDROOT
TORSDOF 0
