MODEL 1
REMARK VINA RESULT:   -12.761      0.000      0.000
REMARK INTER + INTRA:         -12.761
REMARK INTER:                 -12.761
REMARK INTRA:                   0.000
REMARK UNBOUND:                 0.000
ROOT
ATOM      1 C1   LIG A   1      19.951  20.763   7.238  1.00 20.00    -0.060 C 
ATOM      2 C2   LIG A   1      19.981  21.277   8.692  1.00 20.00    -0.016 C 
ATOM      3 C3   LIG A   1      19.827  20.051   9.656  1.00 20.00    -0.023 C 
ATOM      4 C4   LIG A   1      21.078  19.681  10.411  1.00 20.00    -0.044 A 
ATOM      5 C5   LIG A   1      22.172  19.111   9.757  1.00 20.00    -0.058 A 
ATOM      6 C6   LIG A   1      23.433  19.170  10.348  1.00 20.00    -0.054 A 
ATOM      7 C7   LIG A   1      23.619  19.833  11.575  1.00 20.00    +0.009 A 
ATOM      8 C8   LIG A   1      22.485  20.260  12.290  1.00 20.00    +0.130 A 
ATOM      9 C9   LIG A   1      21.214  20.114  11.735  1.00 20.00    -0.016 A 
ATOM     10 O10  LIG A   1      22.677  20.924  13.483  1.00 20.00    -0.464 OA
ATOM     11 C11  LIG A   1      21.824  21.956  13.819  1.00 20.00    +0.104 C 
ATOM     12 C12  LIG A   1      21.751  23.194  13.286  1.00 20.00    +0.082 C 
ATOM     13 C13  LIG A   1      20.854  24.180  13.926  1.00 20.00    -0.010 A 
ATOM     14 C14  LIG A   1      19.483  23.924  14.049  1.00 20.00    -0.052 A 
ATOM     15 C15  LIG A   1      18.634  24.853  14.662  1.00 20.00    -0.038 A 
ATOM     16 C16  LIG A   1      19.123  26.056  15.186  1.00 20.00    +0.034 A 
ATOM     17 N17  LIG A   1      18.204  26.966  15.721  1.00 20.00    -0.385 NA
ATOM     18 C18  LIG A   1      18.673  28.143  16.446  1.00 20.00    +0.016 C 
ATOM     19 C19  LIG A   1      17.492  28.968  16.966  1.00 20.00    -0.023 C 
ATOM     20 C20  LIG A   1      16.685  29.675  15.866  1.00 20.00    -0.003 C 
ATOM     21 N21  LIG A   1      16.012  28.791  14.912  1.00 20.00    -0.317 NA
ATOM     22 C22  LIG A   1      14.845  28.089  15.449  1.00 20.00    -0.005 C 
ATOM     23 C23  LIG A   1      13.601  28.962  15.645  1.00 20.00    -0.039 C 
ATOM     24 C24  LIG A   1      12.859  29.348  14.358  1.00 20.00    -0.040 C 
ATOM     25 C25  LIG A   1      13.681  30.178  13.374  1.00 20.00    -0.008 C 
ATOM     26 N26  LIG A   1      12.815  30.692  12.312  1.00 20.00    -0.330 NA
ATOM     27 C27  LIG A   1      20.484  26.326  15.019  1.00 20.00    -0.038 A 
ATOM     28 C28  LIG A   1      21.342  25.396  14.415  1.00 20.00    -0.052 A 
ATOM     29 C29  LIG A   1      22.667  23.616  12.169  1.00 20.00    +0.264 C 
ATOM     30 O30  LIG A   1      23.461  24.543  12.336  1.00 20.00    -0.268 OA
ATOM     31 N31  LIG A   1      22.580  22.904  10.979  1.00 20.00    -0.277 NA
ATOM     32 C32  LIG A   1      23.826  22.741  10.219  1.00 20.00    +0.029 C 
ATOM     33 C33  LIG A   1      25.169  22.597  10.970  1.00 20.00    -0.034 C 
ATOM     34 C34  LIG A   1      25.302  21.677  12.200  1.00 20.00    -0.034 C 
ATOM     35 C35  LIG A   1      25.038  20.160  12.016  1.00 20.00    +0.085 C 
ATOM     36 C36  LIG A   1      25.435  19.372  13.262  1.00 20.00    +0.311 C 
ATOM     37 O37  LIG A   1      24.780  18.533  13.860  1.00 20.00    -0.252 OA
ATOM     38 O38  LIG A   1      26.700  19.627  13.661  1.00 20.00    -0.481 OA
ATOM     39 C39  LIG A   1      21.318  22.778  10.370  1.00 20.00    +0.246 C 
ATOM     40 O40  LIG A   1      20.268  23.139  10.915  1.00 20.00    -0.273 OA
ATOM     41 C41  LIG A   1      21.225  22.209   8.919  1.00 20.00    +0.088 C 
ATOM     42 N42  LIG A   1      21.153  23.376   8.002  1.00 20.00    -0.320 NA
ATOM     43 C43  LIG A   1      21.586  20.029  10.721  1.00 20.00    -0.056 C 
ATOM     44 C44  LIG A   1      22.833  20.565  11.402  1.00 20.00    -0.002 C 
ATOM     45 S45  LIG A   1      22.417  21.703  12.755  1.00 20.00    -0.087 SA
ATOM     46 C46  LIG A   1      21.921  23.123  11.828  1.00 20.00    +0.205 C 
ATOM     47 O47  LIG A   1      22.244  23.276  10.654  1.00 20.00    -0.285 OA
ATOM     48 C48  LIG A   1      21.157  24.182  12.647  1.00 20.00    +0.074 C 
ATOM     49 N49  LIG A   1      22.095  25.247  13.063  1.00 20.00    -0.321 NA
ATOM     50 C50  LIG A   1      20.015  24.768  11.803  1.00 20.00    -0.028 C 
ATOM     51 C51  LIG A   1      18.875  25.384  12.621  1.00 20.00    -0.034 C 
ATOM     52 C52  LIG A   1      19.293  26.539  13.534  1.00 20.00    +0.018 C 
ATOM     53 N53  LIG A   1      18.117  27.216  14.068  1.00 20.00    -0.357 NA
ATOM     54 C54  LIG A   1      17.370  26.679  15.060  1.00 20.00    +0.185 C 
ATOM     55 N55  LIG A   1      17.662  25.624  15.725  1.00 20.00    -0.270 NA
ATOM     56 N56  LIG A   1      16.259  27.409  15.285  1.00 20.00    -0.370 NA
ATOM     57 H57  LIG A   1      19.917  21.586   6.518  1.00 20.00    +0.023 H 
ATOM     58 H58  LIG A   1      20.832  20.154   7.015  1.00 20.00    +0.023 H 
ATOM     59 H59  LIG A   1      19.059  20.153   7.062  1.00 20.00    +0.023 H 
ATOM     60 H60  LIG A   1      19.070  21.880   8.820  1.00 20.00    +0.032 H 
ATOM     61 H61  LIG A   1      19.032  20.289  10.375  1.00 20.00    +0.032 H 
ATOM     62 H62  LIG A   1      19.461  19.165   9.121  1.00 20.00    +0.032 H 
ATOM     63 H63  LIG A   1      22.070  18.717   8.749  1.00 20.00    +0.063 H 
ATOM     64 H64  LIG A   1      24.287  18.785   9.791  1.00 20.00    +0.063 H 
ATOM     65 H65  LIG A   1      20.342  20.500  12.258  1.00 20.00    +0.067 H 
ATOM     66 H66  LIG A   1      21.247  21.654  14.689  1.00 20.00    +0.105 H 
ATOM     67 H67  LIG A   1      19.053  23.011  13.640  1.00 20.00    +0.063 H 
ATOM     68 H68  LIG A   1      17.569  24.630  14.713  1.00 20.00    +0.064 H 
ATOM     69 H69  LIG A   1      17.446  26.479  16.195  1.00 20.00    +0.160 HD
ATOM     70 H70  LIG A   1      19.277  27.826  17.304  1.00 20.00    +0.049 H 
ATOM     71 H71  LIG A   1      19.294  28.776  15.803  1.00 20.00    +0.049 H 
ATOM     72 H72  LIG A   1      17.894  29.745  17.630  1.00 20.00    +0.030 H 
ATOM     73 H73  LIG A   1      16.839  28.345  17.588  1.00 20.00    +0.030 H 
ATOM     74 H74  LIG A   1      17.373  30.308  15.291  1.00 20.00    +0.043 H 
ATOM     75 H75  LIG A   1      15.972  30.366  16.327  1.00 20.00    +0.043 H 
ATOM     76 H76  LIG A   1      16.702  28.089  14.611  1.00 20.00    +0.122 HD
ATOM     77 H77  LIG A   1      14.592  27.282  14.750  1.00 20.00    +0.043 H 
ATOM     78 H78  LIG A   1      15.097  27.594  16.395  1.00 20.00    +0.043 H 
ATOM     79 H79  LIG A   1      13.840  29.867  16.215  1.00 20.00    +0.028 H 
ATOM     80 H80  LIG A   1      12.896  28.397  16.270  1.00 20.00    +0.028 H 
ATOM     81 H81  LIG A   1      11.962  29.909  14.654  1.00 20.00    +0.028 H 
ATOM     82 H82  LIG A   1      12.501  28.437  13.859  1.00 20.00    +0.028 H 
ATOM     83 H83  LIG A   1      14.162  31.020  13.885  1.00 20.00    +0.043 H 
ATOM     84 H84  LIG A   1      14.460  29.567  12.910  1.00 20.00    +0.043 H 
ATOM     85 H85  LIG A   1      13.381  31.247  11.670  1.00 20.00    +0.118 HD
ATOM     86 H86  LIG A   1      12.131  31.333  12.716  1.00 20.00    +0.118 HD
ATOM     87 H87  LIG A   1      20.918  27.261  15.359  1.00 20.00    +0.064 H 
ATOM     88 H88  LIG A   1      22.398  25.646  14.326  1.00 20.00    +0.063 H 
ATOM     89 H89  LIG A   1      23.749  21.861   9.582  1.00 20.00    +0.050 H 
ATOM     90 H90  LIG A   1      23.898  23.600   9.538  1.00 20.00    +0.050 H 
ATOM     91 H91  LIG A   1      25.492  23.599  11.283  1.00 20.00    +0.029 H 
ATOM     92 H92  LIG A   1      25.921  22.283  10.235  1.00 20.00    +0.029 H 
ATOM     93 H93  LIG A   1      26.342  21.793  12.534  1.00 20.00    +0.028 H 
ATOM     94 H94  LIG A   1      24.721  22.080  13.034  1.00 20.00    +0.028 H 
ATOM     95 H95  LIG A   1      25.721  19.808  11.232  1.00 20.00    +0.047 H 
ATOM     96 H96  LIG A   1      26.815  19.047  14.445  1.00 20.00    +0.296 HD
ATOM     97 H97  LIG A   1      22.111  21.646   8.637  1.00 20.00    +0.057 H 
ATOM     98 H98  LIG A   1      20.269  23.861   8.185  1.00 20.00    +0.119 HD
ATOM     99 H99  LIG A   1      21.877  24.055   8.242  1.00 20.00    +0.119 HD
ATOM    100 H100 LIG A   1      21.868  19.315   9.941  1.00 20.00    +0.024 H 
ATOM    101 H101 LIG A   1      20.938  19.502  11.431  1.00 20.00    +0.024 H 
ATOM    102 H102 LIG A   1      21.003  20.824  10.245  1.00 20.00    +0.024 H 
ATOM    103 H103 LIG A   1      23.389  19.728  11.835  1.00 20.00    +0.038 H 
ATOM    104 H104 LIG A   1      23.498  21.050  10.681  1.00 20.00    +0.038 H 
ATOM    105 H105 LIG A   1      20.732  23.711  13.540  1.00 20.00    +0.055 H 
ATOM    106 H106 LIG A   1      22.814  24.833  13.661  1.00 20.00    +0.119 HD
ATOM    107 H107 LIG A   1      22.586  25.593  12.236  1.00 20.00    +0.119 HD
ATOM    108 H108 LIG A   1      20.403  25.516  11.099  1.00 20.00    +0.029 H 
ATOM    109 H109 LIG A   1      19.580  23.975  11.179  1.00 20.00    +0.029 H 
ATOM    110 H110 LIG A   1      18.105  25.734  11.921  1.00 20.00    +0.029 H 
ATOM    111 H111 LIG A   1      18.403  24.595  13.218  1.00 20.00    +0.029 H 
ATOM    112 H112 LIG A   1      19.872  27.274  12.963  1.00 20.00    +0.049 H 
ATOM    113 H113 LIG A   1      19.925  26.189  14.358  1.00 20.00    +0.049 H 
ATOM    114 H114 LIG A   1      17.566  27.678  13.353  1.00 20.00    +0.163 HD
ATOM    115 H115 LIG A   1      16.920  25.427  16.397  1.00 20.00    +0.191 HD
ATOM    116 H116 LIG A   1      15.799  27.213  16.164  1.00 20.00    +0.159 HD
ATOM    117 H117 LIG A   1      16.430  28.403  15.187  1.00 20.00    +0.159 HD
ENDROOT
TORSDOF 0
                                                                                                                        
ENDMDL
MODEL 2
REMARK VINA RESULT:   -12.722      4.905      7.973
REMARK INTER + INTRA:         -12.722
REMARK INTER:                 -12.722
REMARK INTRA:                   0.000
REMARK UNBOUND:                 0.000
ROOT
ATOM      1 C1   LIG A   1      17.827  13.454  10.609  1.00 20.00    -0.060 C 
ATOM      2 C2   LIG A   1      18.693  14.656  10.181  1.00 20.00    -0.016 C 
ATOM      3 C3   LIG A   1      20.197  14.217  10.200  1.00 20.00    -0.023 C 
ATOM      4 C4   LIG A   1      20.827  14.066   8.839  1.00 20.00    -0.044 A 
ATOM      5 C5   LIG A   1      20.466  13.018   7.990  1.00 20.00    -0.058 A 
ATOM      6 C6   LIG A   1      20.715  13.123   6.623  1.00 20.00    -0.054 A 
ATOM      7 C7   LIG A   1      21.290  14.291   6.089  1.00 20.00    +0.009 A 
ATOM      8 C8   LIG A   1      21.790  15.264   6.973  1.00 20.00    +0.130 A 
ATOM      9 C9   LIG A   1      21.620  15.109   8.349  1.00 20.00    -0.016 A 
ATOM     10 O10  LIG A   1      22.335  16.413   6.440  1.00 20.00    -0.464 OA
ATOM     11 C11  LIG A   1      22.139  17.612   7.093  1.00 20.00    +0.104 C 
ATOM     12 C12  LIG A   1      21.008  18.344   7.187  1.00 20.00    +0.082 C 
ATOM     13 C13  LIG A   1      21.088  19.681   7.814  1.00 20.00    -0.010 A 
ATOM     14 C14  LIG A   1      21.542  19.826   9.131  1.00 20.00    -0.052 A 
ATOM     15 C15  LIG A   1      21.627  21.093   9.721  1.00 20.00    -0.038 A 
ATOM     16 C16  LIG A   1      21.280  22.253   9.018  1.00 20.00    +0.034 A 
ATOM     17 N17  LIG A   1      21.323  23.475   9.697  1.00 20.00    -0.385 NA
ATOM     18 C18  LIG A   1      21.156  24.728   8.967  1.00 20.00    +0.016 C 
ATOM     19 C19  LIG A   1      21.276  25.929   9.910  1.00 20.00    -0.023 C 
ATOM     20 C20  LIG A   1      20.108  26.074  10.897  1.00 20.00    -0.003 C 
ATOM     21 N21  LIG A   1      19.953  24.977  11.856  1.00 20.00    -0.317 NA
ATOM     22 C22  LIG A   1      20.966  24.943  12.912  1.00 20.00    -0.005 C 
ATOM     23 C23  LIG A   1      20.807  26.020  13.991  1.00 20.00    -0.039 C 
ATOM     24 C24  LIG A   1      19.664  25.788  14.989  1.00 20.00    -0.040 C 
ATOM     25 C25  LIG A   1      18.271  25.756  14.363  1.00 20.00    -0.008 C 
ATOM     26 N26  LIG A   1      17.253  25.776  15.415  1.00 20.00    -0.330 NA
ATOM     27 C27  LIG A   1      20.784  22.096   7.720  1.00 20.00    -0.038 A 
ATOM     28 C28  LIG A   1      20.706  20.832   7.119  1.00 20.00    -0.052 A 
ATOM     29 C29  LIG A   1      19.729  17.887   6.539  1.00 20.00    +0.264 C 
ATOM     30 O30  LIG A   1      19.209  18.564   5.651  1.00 20.00    -0.268 OA
ATOM     31 N31  LIG A   1      19.197  16.678   6.973  1.00 20.00    -0.277 NA
ATOM     32 C32  LIG A   1      18.492  15.872   5.969  1.00 20.00    +0.029 C 
ATOM     33 C33  LIG A   1      18.976  15.883   4.501  1.00 20.00    -0.034 C 
ATOM     34 C34  LIG A   1      20.474  15.777   4.152  1.00 20.00    -0.034 C 
ATOM     35 C35  LIG A   1      21.241  14.499   4.582  1.00 20.00    +0.085 C 
ATOM     36 C36  LIG A   1      22.636  14.454   3.963  1.00 20.00    +0.311 C 
ATOM     37 O37  LIG A   1      23.699  14.235   4.521  1.00 20.00    -0.252 OA
ATOM     38 O38  LIG A   1      22.617  14.613   2.621  1.00 20.00    -0.481 OA
ATOM     39 C39  LIG A   1      18.972  16.509   8.352  1.00 20.00    +0.246 C 
ATOM     40 O40  LIG A   1      19.360  17.319   9.202  1.00 20.00    -0.273 OA
ATOM     41 C41  LIG A   1      18.149  15.276   8.845  1.00 20.00    +0.088 C 
ATOM     42 N42  LIG A   1      16.751  15.741   9.037  1.00 20.00    -0.320 NA
ATOM     43 C43  LIG A   1      20.799  14.411   8.244  1.00 20.00    -0.056 C 
ATOM     44 C44  LIG A   1      20.848  14.956   6.826  1.00 20.00    -0.002 C 
ATOM     45 S45  LIG A   1      21.340  16.704   6.801  1.00 20.00    -0.087 SA
ATOM     46 C46  LIG A   1      19.853  17.457   7.385  1.00 20.00    +0.205 C 
ATOM     47 O47  LIG A   1      18.773  16.875   7.346  1.00 20.00    -0.285 OA
ATOM     48 C48  LIG A   1      20.015  18.922   7.833  1.00 20.00    +0.074 C 
ATOM     49 N49  LIG A   1      19.593  19.818   6.733  1.00 20.00    -0.321 NA
ATOM     50 C50  LIG A   1      19.172  19.179   9.091  1.00 20.00    -0.028 C 
ATOM     51 C51  LIG A   1      19.645  20.363   9.940  1.00 20.00    -0.034 C 
ATOM     52 C52  LIG A   1      19.649  21.710   9.215  1.00 20.00    +0.018 C 
ATOM     53 N53  LIG A   1      19.865  22.797  10.163  1.00 20.00    -0.357 NA
ATOM     54 C54  LIG A   1      21.084  23.057  10.689  1.00 20.00    +0.185 C 
ATOM     55 N55  LIG A   1      22.183  22.501  10.335  1.00 20.00    -0.270 NA
ATOM     56 N56  LIG A   1      21.012  24.005  11.644  1.00 20.00    -0.370 NA
ATOM     57 H57  LIG A   1      16.779  13.738  10.746  1.00 20.00    +0.023 H 
ATOM     58 H58  LIG A   1      17.866  12.653   9.863  1.00 20.00    +0.023 H 
ATOM     59 H59  LIG A   1      18.172  13.049  11.565  1.00 20.00    +0.023 H 
ATOM     60 H60  LIG A   1      18.585  15.407  10.978  1.00 20.00    +0.032 H 
ATOM     61 H61  LIG A   1      20.757  14.969  10.773  1.00 20.00    +0.032 H 
ATOM     62 H62  LIG A   1      20.334  13.283  10.760  1.00 20.00    +0.032 H 
ATOM     63 H63  LIG A   1      19.900  12.170   8.369  1.00 20.00    +0.063 H 
ATOM     64 H64  LIG A   1      20.361  12.329   5.967  1.00 20.00    +0.063 H 
ATOM     65 H65  LIG A   1      21.950  15.890   9.031  1.00 20.00    +0.067 H 
ATOM     66 H66  LIG A   1      23.098  17.961   7.465  1.00 20.00    +0.105 H 
ATOM     67 H67  LIG A   1      21.805  18.953   9.724  1.00 20.00    +0.063 H 
ATOM     68 H68  LIG A   1      21.958  21.163  10.757  1.00 20.00    +0.064 H 
ATOM     69 H69  LIG A   1      22.100  23.496  10.356  1.00 20.00    +0.160 HD
ATOM     70 H70  LIG A   1      21.936  24.810   8.202  1.00 20.00    +0.049 H 
ATOM     71 H71  LIG A   1      20.181  24.763   8.470  1.00 20.00    +0.049 H 
ATOM     72 H72  LIG A   1      21.301  26.837   9.293  1.00 20.00    +0.030 H 
ATOM     73 H73  LIG A   1      22.234  25.898  10.443  1.00 20.00    +0.030 H 
ATOM     74 H74  LIG A   1      19.177  26.131  10.318  1.00 20.00    +0.043 H 
ATOM     75 H75  LIG A   1      20.187  27.035  11.415  1.00 20.00    +0.043 H 
ATOM     76 H76  LIG A   1      20.011  24.098  11.322  1.00 20.00    +0.122 HD
ATOM     77 H77  LIG A   1      20.908  23.961  13.396  1.00 20.00    +0.043 H 
ATOM     78 H78  LIG A   1      21.972  25.003  12.481  1.00 20.00    +0.043 H 
ATOM     79 H79  LIG A   1      20.707  27.015  13.544  1.00 20.00    +0.028 H 
ATOM     80 H80  LIG A   1      21.742  26.048  14.569  1.00 20.00    +0.028 H 
ATOM     81 H81  LIG A   1      19.713  26.593  15.735  1.00 20.00    +0.028 H 
ATOM     82 H82  LIG A   1      19.843  24.852  15.534  1.00 20.00    +0.028 H 
ATOM     83 H83  LIG A   1      18.123  26.617  13.702  1.00 20.00    +0.043 H 
ATOM     84 H84  LIG A   1      18.133  24.843  13.776  1.00 20.00    +0.043 H 
ATOM     85 H85  LIG A   1      16.332  25.759  14.976  1.00 20.00    +0.118 HD
ATOM     86 H86  LIG A   1      17.311  26.659  15.922  1.00 20.00    +0.118 HD
ATOM     87 H87  LIG A   1      20.452  22.950   7.139  1.00 20.00    +0.064 H 
ATOM     88 H88  LIG A   1      20.331  20.766   6.099  1.00 20.00    +0.063 H 
ATOM     89 H89  LIG A   1      18.501  14.826   6.274  1.00 20.00    +0.050 H 
ATOM     90 H90  LIG A   1      17.440  16.184   5.992  1.00 20.00    +0.050 H 
ATOM     91 H91  LIG A   1      18.600  16.799   4.027  1.00 20.00    +0.029 H 
ATOM     92 H92  LIG A   1      18.453  15.069   3.980  1.00 20.00    +0.029 H 
ATOM     93 H93  LIG A   1      20.518  15.834   3.056  1.00 20.00    +0.028 H 
ATOM     94 H94  LIG A   1      20.999  16.679   4.475  1.00 20.00    +0.028 H 
ATOM     95 H95  LIG A   1      20.711  13.644   4.143  1.00 20.00    +0.047 H 
ATOM     96 H96  LIG A   1      23.564  14.545   2.369  1.00 20.00    +0.296 HD
ATOM     97 H97  LIG A   1      18.114  14.480   8.105  1.00 20.00    +0.057 H 
ATOM     98 H98  LIG A   1      16.752  16.419   9.805  1.00 20.00    +0.119 HD
ATOM     99 H99  LIG A   1      16.443  16.272   8.220  1.00 20.00    +0.119 HD
ATOM    100 H100 LIG A   1      20.542  13.347   8.222  1.00 20.00    +0.024 H 
ATOM    101 H101 LIG A   1      21.771  14.505   8.742  1.00 20.00    +0.024 H 
ATOM    102 H102 LIG A   1      20.046  14.920   8.854  1.00 20.00    +0.024 H 
ATOM    103 H103 LIG A   1      21.595  14.395   6.256  1.00 20.00    +0.038 H 
ATOM    104 H104 LIG A   1      19.888  14.818   6.319  1.00 20.00    +0.038 H 
ATOM    105 H105 LIG A   1      21.068  19.115   8.066  1.00 20.00    +0.055 H 
ATOM    106 H106 LIG A   1      20.203  19.657   5.929  1.00 20.00    +0.119 HD
ATOM    107 H107 LIG A   1      18.655  19.546   6.430  1.00 20.00    +0.119 HD
ATOM    108 H108 LIG A   1      18.117  19.321   8.823  1.00 20.00    +0.029 H 
ATOM    109 H109 LIG A   1      19.194  18.286   9.731  1.00 20.00    +0.029 H 
ATOM    110 H110 LIG A   1      18.999  20.427  10.825  1.00 20.00    +0.029 H 
ATOM    111 H111 LIG A   1      20.651  20.145  10.319  1.00 20.00    +0.029 H 
ATOM    112 H112 LIG A   1      18.680  21.875   8.731  1.00 20.00    +0.049 H 
ATOM    113 H113 LIG A   1      20.417  21.742   8.434  1.00 20.00    +0.049 H 
ATOM    114 H114 LIG A   1      19.109  22.899  10.830  1.00 20.00    +0.163 HD
ATOM    115 H115 LIG A   1      22.948  22.862  10.905  1.00 20.00    +0.191 HD
ATOM    116 H116 LIG A   1      21.901  24.421  11.891  1.00 20.00    +0.159 HD
ATOM    117 H117 LIG A   1      20.334  24.724  11.418  1.00 20.00    +0.159 HD
ENDROOT
TORSDOF 0
                                                                                                                        
ENDMDL
MODEL 3
REMARK VINA RESULT:   -11.879      6.135     10.911
REMARK INTER + INTRA:         -11.879
REMARK INTER:                 -11.879
REMARK INTRA:                   0.000
REMARK UNBOUND:                 0.000
ROOT
ATOM      1 C1   LIG A   1      21.502  22.880   6.926  1.00 20.00    -0.060 C 
ATOM      2 C2   LIG A   1      21.286  21.379   7.209  1.00 20.00    -0.016 C 
ATOM      3 C3   LIG A   1      22.666  20.646   7.087  1.00 20.00    -0.023 C 
ATOM      4 C4   LIG A   1      23.251  20.179   8.395  1.00 20.00    -0.044 A 
ATOM      5 C5   LIG A   1      23.745  21.091   9.330  1.00 20.00    -0.058 A 
ATOM      6 C6   LIG A   1      23.879  20.706  10.663  1.00 20.00    -0.054 A 
ATOM      7 C7   LIG A   1      23.482  19.422  11.079  1.00 20.00    +0.009 A 
ATOM      8 C8   LIG A   1      23.137  18.470  10.102  1.00 20.00    +0.130 A 
ATOM      9 C9   LIG A   1      23.096  18.837   8.756  1.00 20.00    -0.016 A 
ATOM     10 O10  LIG A   1      22.733  17.220  10.520  1.00 20.00    -0.464 OA
ATOM     11 C11  LIG A   1      21.738  16.569   9.819  1.00 20.00    +0.104 C 
ATOM     12 C12  LIG A   1      20.417  16.846   9.781  1.00 20.00    +0.082 C 
ATOM     13 C13  LIG A   1      19.524  15.902   9.075  1.00 20.00    -0.010 A 
ATOM     14 C14  LIG A   1      19.718  15.614   7.719  1.00 20.00    -0.052 A 
ATOM     15 C15  LIG A   1      18.878  14.713   7.052  1.00 20.00    -0.038 A 
ATOM     16 C16  LIG A   1      17.833  14.060   7.716  1.00 20.00    +0.034 A 
ATOM     17 N17  LIG A   1      16.993  13.228   6.967  1.00 20.00    -0.385 NA
ATOM     18 C18  LIG A   1      16.011  12.381   7.637  1.00 20.00    +0.016 C 
ATOM     19 C19  LIG A   1      15.236  11.537   6.620  1.00 20.00    -0.023 C 
ATOM     20 C20  LIG A   1      14.279  12.346   5.731  1.00 20.00    -0.003 C 
ATOM     21 N21  LIG A   1      14.917  13.330   4.852  1.00 20.00    -0.317 NA
ATOM     22 C22  LIG A   1      15.640  12.755   3.717  1.00 20.00    -0.005 C 
ATOM     23 C23  LIG A   1      14.750  12.208   2.596  1.00 20.00    -0.039 C 
ATOM     24 C24  LIG A   1      14.076  13.268   1.715  1.00 20.00    -0.040 C 
ATOM     25 C25  LIG A   1      13.119  14.198   2.457  1.00 20.00    -0.008 C 
ATOM     26 N26  LIG A   1      12.356  14.997   1.497  1.00 20.00    -0.330 NA
ATOM     27 C27  LIG A   1      17.617  14.386   9.058  1.00 20.00    -0.038 A 
ATOM     28 C28  LIG A   1      18.459  15.279   9.735  1.00 20.00    -0.052 A 
ATOM     29 C29  LIG A   1      19.839  17.995  10.562  1.00 20.00    +0.264 C 
ATOM     30 O30  LIG A   1      19.013  17.787  11.450  1.00 20.00    -0.268 OA
ATOM     31 N31  LIG A   1      20.298  19.268  10.243  1.00 20.00    -0.277 NA
ATOM     32 C32  LIG A   1      20.381  20.232  11.348  1.00 20.00    +0.029 C 
ATOM     33 C33  LIG A   1      20.750  19.741  12.766  1.00 20.00    -0.034 C 
ATOM     34 C34  LIG A   1      21.900  18.739  12.991  1.00 20.00    -0.034 C 
ATOM     35 C35  LIG A   1      23.333  19.157  12.570  1.00 20.00    +0.085 C 
ATOM     36 C36  LIG A   1      24.372  18.156  13.070  1.00 20.00    +0.311 C 
ATOM     37 O37  LIG A   1      25.272  17.628  12.436  1.00 20.00    -0.252 OA
ATOM     38 O38  LIG A   1      24.276  17.921  14.397  1.00 20.00    -0.481 OA
ATOM     39 C39  LIG A   1      20.226  19.684   8.901  1.00 20.00    +0.246 C 
ATOM     40 O40  LIG A   1      19.917  18.923   7.976  1.00 20.00    -0.273 OA
ATOM     41 C41  LIG A   1      20.493  21.182   8.550  1.00 20.00    +0.088 C 
ATOM     42 N42  LIG A   1      19.166  21.844   8.452  1.00 20.00    -0.320 NA
ATOM     43 C43  LIG A   1      23.001  19.894   8.971  1.00 20.00    -0.056 C 
ATOM     44 C44  LIG A   1      22.685  19.331  10.346  1.00 20.00    -0.002 C 
ATOM     45 S45  LIG A   1      21.812  17.742  10.230  1.00 20.00    -0.087 SA
ATOM     46 C46  LIG A   1      20.211  18.300   9.734  1.00 20.00    +0.205 C 
ATOM     47 O47  LIG A   1      19.849  19.461   9.898  1.00 20.00    -0.285 OA
ATOM     48 C48  LIG A   1      19.290  17.190   9.191  1.00 20.00    +0.074 C 
ATOM     49 N49  LIG A   1      18.385  16.736  10.271  1.00 20.00    -0.321 NA
ATOM     50 C50  LIG A   1      18.482  17.720   7.997  1.00 20.00    -0.028 C 
ATOM     51 C51  LIG A   1      17.972  16.633   7.045  1.00 20.00    -0.034 C 
ATOM     52 C52  LIG A   1      17.046  15.600   7.690  1.00 20.00    +0.018 C 
ATOM     53 N53  LIG A   1      16.418  14.771   6.667  1.00 20.00    -0.357 NA
ATOM     54 C54  LIG A   1      17.094  13.791   6.025  1.00 20.00    +0.185 C 
ATOM     55 N55  LIG A   1      18.275  13.387   6.314  1.00 20.00    -0.270 NA
ATOM     56 N56  LIG A   1      16.357  13.263   5.027  1.00 20.00    -0.370 NA
ATOM     57 H57  LIG A   1      20.553  23.420   6.863  1.00 20.00    +0.023 H 
ATOM     58 H58  LIG A   1      22.107  23.347   7.709  1.00 20.00    +0.023 H 
ATOM     59 H59  LIG A   1      22.011  23.023   5.968  1.00 20.00    +0.023 H 
ATOM     60 H60  LIG A   1      20.666  21.000   6.384  1.00 20.00    +0.032 H 
ATOM     61 H61  LIG A   1      22.527  19.779   6.427  1.00 20.00    +0.032 H 
ATOM     62 H62  LIG A   1      23.407  21.272   6.571  1.00 20.00    +0.032 H 
ATOM     63 H63  LIG A   1      23.928  22.126   9.050  1.00 20.00    +0.063 H 
ATOM     64 H64  LIG A   1      24.197  21.451  11.390  1.00 20.00    +0.063 H 
ATOM     65 H65  LIG A   1      22.768  18.120   8.006  1.00 20.00    +0.067 H 
ATOM     66 H66  LIG A   1      22.170  15.691   9.348  1.00 20.00    +0.105 H 
ATOM     67 H67  LIG A   1      20.505  16.112   7.156  1.00 20.00    +0.063 H 
ATOM     68 H68  LIG A   1      19.043  14.538   5.990  1.00 20.00    +0.064 H 
ATOM     69 H69  LIG A   1      17.518  12.739   6.244  1.00 20.00    +0.160 HD
ATOM     70 H70  LIG A   1      16.526  11.702   8.327  1.00 20.00    +0.049 H 
ATOM     71 H71  LIG A   1      15.302  12.985   8.213  1.00 20.00    +0.049 H 
ATOM     72 H72  LIG A   1      14.630  10.813   7.181  1.00 20.00    +0.030 H 
ATOM     73 H73  LIG A   1      15.929  10.946   6.010  1.00 20.00    +0.030 H 
ATOM     74 H74  LIG A   1      13.588  12.895   6.383  1.00 20.00    +0.043 H 
ATOM     75 H75  LIG A   1      13.651  11.659   5.155  1.00 20.00    +0.043 H 
ATOM     76 H76  LIG A   1      15.586  13.861   5.428  1.00 20.00    +0.122 HD
ATOM     77 H77  LIG A   1      16.278  13.542   3.296  1.00 20.00    +0.043 H 
ATOM     78 H78  LIG A   1      16.326  11.969   4.056  1.00 20.00    +0.043 H 
ATOM     79 H79  LIG A   1      13.991  11.525   2.993  1.00 20.00    +0.028 H 
ATOM     80 H80  LIG A   1      15.385  11.596   1.940  1.00 20.00    +0.028 H 
ATOM     81 H81  LIG A   1      13.531  12.736   0.922  1.00 20.00    +0.028 H 
ATOM     82 H82  LIG A   1      14.848  13.864   1.210  1.00 20.00    +0.028 H 
ATOM     83 H83  LIG A   1      12.424  13.622   3.080  1.00 20.00    +0.043 H 
ATOM     84 H84  LIG A   1      13.672  14.884   3.105  1.00 20.00    +0.043 H 
ATOM     85 H85  LIG A   1      11.721  15.606   2.013  1.00 20.00    +0.118 HD
ATOM     86 H86  LIG A   1      11.767  14.379   0.938  1.00 20.00    +0.118 HD
ATOM     87 H87  LIG A   1      16.794  13.952   9.616  1.00 20.00    +0.064 H 
ATOM     88 H88  LIG A   1      18.260  15.485  10.785  1.00 20.00    +0.063 H 
ATOM     89 H89  LIG A   1      21.113  21.000  11.103  1.00 20.00    +0.050 H 
ATOM     90 H90  LIG A   1      19.412  20.744  11.397  1.00 20.00    +0.050 H 
ATOM     91 H91  LIG A   1      19.850  19.303  13.218  1.00 20.00    +0.029 H 
ATOM     92 H92  LIG A   1      20.958  20.631  13.375  1.00 20.00    +0.029 H 
ATOM     93 H93  LIG A   1      21.914  18.558  14.075  1.00 20.00    +0.028 H 
ATOM     94 H94  LIG A   1      21.635  17.764  12.574  1.00 20.00    +0.028 H 
ATOM     95 H95  LIG A   1      23.564  20.090  13.100  1.00 20.00    +0.047 H 
ATOM     96 H96  LIG A   1      25.005  17.286  14.571  1.00 20.00    +0.296 HD
ATOM     97 H97  LIG A   1      21.041  21.699   9.334  1.00 20.00    +0.057 H 
ATOM     98 H98  LIG A   1      18.675  21.438   7.650  1.00 20.00    +0.119 HD
ATOM     99 H99  LIG A   1      18.592  21.599   9.261  1.00 20.00    +0.119 HD
ATOM    100 H100 LIG A   1      23.564  20.827   9.075  1.00 20.00    +0.024 H 
ATOM    101 H101 LIG A   1      23.618  19.200   8.387  1.00 20.00    +0.024 H 
ATOM    102 H102 LIG A   1      22.095  20.117   8.399  1.00 20.00    +0.024 H 
ATOM    103 H103 LIG A   1      23.623  19.153  10.881  1.00 20.00    +0.038 H 
ATOM    104 H104 LIG A   1      22.108  20.045  10.940  1.00 20.00    +0.038 H 
ATOM    105 H105 LIG A   1      19.901  16.343   8.859  1.00 20.00    +0.055 H 
ATOM    106 H106 LIG A   1      18.950  16.346  11.028  1.00 20.00    +0.119 HD
ATOM    107 H107 LIG A   1      17.913  17.552  10.667  1.00 20.00    +0.119 HD
ATOM    108 H108 LIG A   1      17.635  18.326   8.346  1.00 20.00    +0.029 H 
ATOM    109 H109 LIG A   1      19.110  18.404   7.409  1.00 20.00    +0.029 H 
ATOM    110 H110 LIG A   1      17.447  17.126   6.216  1.00 20.00    +0.029 H 
ATOM    111 H111 LIG A   1      18.833  16.126   6.595  1.00 20.00    +0.029 H 
ATOM    112 H112 LIG A   1      16.249  16.109   8.244  1.00 20.00    +0.049 H 
ATOM    113 H113 LIG A   1      17.588  14.965   8.399  1.00 20.00    +0.049 H 
ATOM    114 H114 LIG A   1      15.793  15.292   6.063  1.00 20.00    +0.163 HD
ATOM    115 H115 LIG A   1      18.555  12.655   5.662  1.00 20.00    +0.191 HD
ATOM    116 H116 LIG A   1      16.695  12.374   4.682  1.00 20.00    +0.159 HD
ATOM    117 H117 LIG A   1      15.375  13.201   5.269  1.00 20.00    +0.159 HD
ENDROOT
TORSDOF 0
                                                                                                                        
ENDMDL
MODEL 4
REMARK VINA RESULT:   -11.563      5.931      9.002
REMARK INTER + INTRA:         -11.563
REMARK INTER:                 -11.563
REMARK INTRA:                   0.000
REMARK UNBOUND:                 0.000
ROOT
ATOM      1 C1   LIG A   1      18.452  25.974  12.366  1.00 20.00    -0.060 C 
ATOM      2 C2   LIG A   1      18.179  26.488  13.794  1.00 20.00    -0.016 C 
ATOM      3 C3   LIG A   1      19.197  25.806  14.771  1.00 20.00    -0.023 C 
ATOM      4 C4   LIG A   1      20.267  26.721  15.308  1.00 20.00    -0.044 A 
ATOM      5 C5   LIG A   1      21.285  27.202  14.481  1.00 20.00    -0.058 A 
ATOM      6 C6   LIG A   1      21.992  28.344  14.854  1.00 20.00    -0.054 A 
ATOM      7 C7   LIG A   1      21.661  29.037  16.033  1.00 20.00    +0.009 A 
ATOM      8 C8   LIG A   1      20.745  28.452  16.927  1.00 20.00    +0.130 A 
ATOM      9 C9   LIG A   1      20.108  27.257  16.590  1.00 20.00    -0.016 A 
ATOM     10 O10  LIG A   1      20.414  29.147  18.071  1.00 20.00    -0.464 OA
ATOM     11 C11  LIG A   1      19.119  29.079  18.543  1.00 20.00    +0.104 C 
ATOM     12 C12  LIG A   1      18.005  29.644  18.029  1.00 20.00    +0.082 C 
ATOM     13 C13  LIG A   1      16.752  29.555  18.808  1.00 20.00    -0.010 A 
ATOM     14 C14  LIG A   1      16.214  28.311  19.157  1.00 20.00    -0.052 A 
ATOM     15 C15  LIG A   1      15.032  28.227  19.903  1.00 20.00    -0.038 A 
ATOM     16 C16  LIG A   1      14.358  29.375  20.338  1.00 20.00    +0.034 A 
ATOM     17 N17  LIG A   1      13.146  29.212  21.017  1.00 20.00    -0.385 NA
ATOM     18 C18  LIG A   1      12.500  30.356  21.653  1.00 20.00    +0.016 C 
ATOM     19 C19  LIG A   1      11.211  29.930  22.362  1.00 20.00    -0.023 C 
ATOM     20 C20  LIG A   1      10.076  29.519  21.412  1.00 20.00    -0.003 C 
ATOM     21 N21  LIG A   1      10.344  28.341  20.583  1.00 20.00    -0.317 NA
ATOM     22 C22  LIG A   1      10.327  27.069  21.307  1.00 20.00    -0.005 C 
ATOM     23 C23  LIG A   1       8.933  26.574  21.706  1.00 20.00    -0.039 C 
ATOM     24 C24  LIG A   1       8.083  26.009  20.561  1.00 20.00    -0.040 C 
ATOM     25 C25  LIG A   1       7.760  27.011  19.454  1.00 20.00    -0.008 C 
ATOM     26 N26  LIG A   1       6.756  26.448  18.550  1.00 20.00    -0.330 NA
ATOM     27 C27  LIG A   1      14.875  30.613  19.946  1.00 20.00    -0.038 A 
ATOM     28 C28  LIG A   1      16.064  30.705  19.208  1.00 20.00    -0.052 A 
ATOM     29 C29  LIG A   1      18.061  30.473  16.775  1.00 20.00    +0.264 C 
ATOM     30 O30  LIG A   1      17.752  31.665  16.807  1.00 20.00    -0.268 OA
ATOM     31 N31  LIG A   1      18.491  29.838  15.616  1.00 20.00    -0.277 NA
ATOM     32 C32  LIG A   1      19.246  30.657  14.659  1.00 20.00    +0.029 C 
ATOM     33 C33  LIG A   1      20.181  31.774  15.177  1.00 20.00    -0.034 C 
ATOM     34 C34  LIG A   1      21.129  31.533  16.369  1.00 20.00    -0.034 C 
ATOM     35 C35  LIG A   1      22.219  30.439  16.232  1.00 20.00    +0.085 C 
ATOM     36 C36  LIG A   1      23.207  30.490  17.395  1.00 20.00    +0.311 C 
ATOM     37 O37  LIG A   1      23.593  29.567  18.094  1.00 20.00    -0.252 OA
ATOM     38 O38  LIG A   1      23.736  31.720  17.578  1.00 20.00    -0.481 OA
ATOM     39 C39  LIG A   1      17.838  28.655  15.225  1.00 20.00    +0.246 C 
ATOM     40 O40  LIG A   1      17.006  28.077  15.937  1.00 20.00    -0.273 OA
ATOM     41 C41  LIG A   1      18.121  28.058  13.810  1.00 20.00    +0.088 C 
ATOM     42 N42  LIG A   1      17.031  28.530  12.917  1.00 20.00    -0.320 NA
ATOM     43 C43  LIG A   1      20.290  27.373  15.529  1.00 20.00    -0.056 C 
ATOM     44 C44  LIG A   1      20.604  28.786  15.992  1.00 20.00    -0.002 C 
ATOM     45 S45  LIG A   1      19.558  29.274  17.395  1.00 20.00    -0.087 SA
ATOM     46 C46  LIG A   1      18.022  29.541  16.563  1.00 20.00    +0.205 C 
ATOM     47 O47  LIG A   1      17.966  29.729  15.351  1.00 20.00    -0.285 OA
ATOM     48 C48  LIG A   1      16.800  29.627  17.496  1.00 20.00    +0.074 C 
ATOM     49 N49  LIG A   1      16.479  31.049  17.750  1.00 20.00    -0.321 NA
ATOM     50 C50  LIG A   1      15.602  28.910  16.854  1.00 20.00    -0.028 C 
ATOM     51 C51  LIG A   1      14.536  28.441  17.850  1.00 20.00    -0.034 C 
ATOM     52 C52  LIG A   1      13.899  29.558  18.680  1.00 20.00    +0.018 C 
ATOM     53 N53  LIG A   1      12.736  29.053  19.402  1.00 20.00    -0.357 NA
ATOM     54 C54  LIG A   1      12.858  28.280  20.504  1.00 20.00    +0.185 C 
ATOM     55 N55  LIG A   1      13.954  28.015  21.112  1.00 20.00    -0.270 NA
ATOM     56 N56  LIG A   1      11.659  27.816  20.910  1.00 20.00    -0.370 NA
ATOM     57 H57  LIG A   1      17.686  26.311  11.661  1.00 20.00    +0.023 H 
ATOM     58 H58  LIG A   1      19.424  26.319  12.000  1.00 20.00    +0.023 H 
ATOM     59 H59  LIG A   1      18.445  24.880  12.340  1.00 20.00    +0.023 H 
ATOM     60 H60  LIG A   1      17.187  26.104  14.071  1.00 20.00    +0.032 H 
ATOM     61 H61  LIG A   1      18.625  25.391  15.613  1.00 20.00    +0.032 H 
ATOM     62 H62  LIG A   1      19.676  24.935  14.305  1.00 20.00    +0.032 H 
ATOM     63 H63  LIG A   1      21.461  26.757  13.505  1.00 20.00    +0.063 H 
ATOM     64 H64  LIG A   1      22.732  28.746  14.164  1.00 20.00    +0.063 H 
ATOM     65 H65  LIG A   1      19.354  26.836  17.251  1.00 20.00    +0.067 H 
ATOM     66 H66  LIG A   1      19.129  28.559  19.496  1.00 20.00    +0.105 H 
ATOM     67 H67  LIG A   1      16.691  27.390  18.827  1.00 20.00    +0.063 H 
ATOM     68 H68  LIG A   1      14.629  27.241  20.131  1.00 20.00    +0.064 H 
ATOM     69 H69  LIG A   1      13.171  28.385  21.611  1.00 20.00    +0.160 HD
ATOM     70 H70  LIG A   1      13.178  30.788  22.399  1.00 20.00    +0.049 H 
ATOM     71 H71  LIG A   1      12.262  31.130  20.916  1.00 20.00    +0.049 H 
ATOM     72 H72  LIG A   1      10.855  30.787  22.950  1.00 20.00    +0.030 H 
ATOM     73 H73  LIG A   1      11.422  29.132  23.085  1.00 20.00    +0.030 H 
ATOM     74 H74  LIG A   1       9.882  30.357  20.730  1.00 20.00    +0.043 H 
ATOM     75 H75  LIG A   1       9.152  29.390  21.984  1.00 20.00    +0.043 H 
ATOM     76 H76  LIG A   1      11.280  28.467  20.171  1.00 20.00    +0.122 HD
ATOM     77 H77  LIG A   1      10.788  26.313  20.661  1.00 20.00    +0.043 H 
ATOM     78 H78  LIG A   1      10.964  27.126  22.198  1.00 20.00    +0.043 H 
ATOM     79 H79  LIG A   1       8.370  27.357  22.229  1.00 20.00    +0.028 H 
ATOM     80 H80  LIG A   1       9.067  25.767  22.440  1.00 20.00    +0.028 H 
ATOM     81 H81  LIG A   1       7.148  25.635  21.001  1.00 20.00    +0.028 H 
ATOM     82 H82  LIG A   1       8.589  25.136  20.129  1.00 20.00    +0.028 H 
ATOM     83 H83  LIG A   1       7.379  27.947  19.877  1.00 20.00    +0.043 H 
ATOM     84 H84  LIG A   1       8.655  27.238  18.866  1.00 20.00    +0.043 H 
ATOM     85 H85  LIG A   1       6.553  27.133  17.822  1.00 20.00    +0.118 HD
ATOM     86 H86  LIG A   1       5.885  26.307  19.061  1.00 20.00    +0.118 HD
ATOM     87 H87  LIG A   1      14.374  31.539  20.209  1.00 20.00    +0.064 H 
ATOM     88 H88  LIG A   1      16.435  31.694  18.946  1.00 20.00    +0.063 H 
ATOM     89 H89  LIG A   1      19.871  30.010  14.045  1.00 20.00    +0.050 H 
ATOM     90 H90  LIG A   1      18.513  31.105  13.976  1.00 20.00    +0.050 H 
ATOM     91 H91  LIG A   1      19.561  32.644  15.431  1.00 20.00    +0.029 H 
ATOM     92 H92  LIG A   1      20.790  32.108  14.327  1.00 20.00    +0.029 H 
ATOM     93 H93  LIG A   1      21.643  32.492  16.524  1.00 20.00    +0.028 H 
ATOM     94 H94  LIG A   1      20.552  31.402  17.287  1.00 20.00    +0.028 H 
ATOM     95 H95  LIG A   1      22.816  30.689  15.345  1.00 20.00    +0.047 H 
ATOM     96 H96  LIG A   1      24.352  31.595  18.332  1.00 20.00    +0.296 HD
ATOM     97 H97  LIG A   1      19.052  28.424  13.385  1.00 20.00    +0.057 H 
ATOM     98 H98  LIG A   1      16.156  28.108  13.244  1.00 20.00    +0.119 HD
ATOM     99 H99  LIG A   1      16.894  29.536  13.034  1.00 20.00    +0.119 HD
ATOM    100 H100 LIG A   1      20.965  27.094  14.713  1.00 20.00    +0.024 H 
ATOM    101 H101 LIG A   1      20.432  26.646  16.337  1.00 20.00    +0.024 H 
ATOM    102 H102 LIG A   1      19.265  27.281  15.155  1.00 20.00    +0.024 H 
ATOM    103 H103 LIG A   1      21.644  28.826  16.328  1.00 20.00    +0.038 H 
ATOM    104 H104 LIG A   1      20.504  29.501  15.171  1.00 20.00    +0.038 H 
ATOM    105 H105 LIG A   1      17.036  29.139  18.449  1.00 20.00    +0.055 H 
ATOM    106 H106 LIG A   1      17.276  31.484  18.221  1.00 20.00    +0.119 HD
ATOM    107 H107 LIG A   1      16.389  31.530  16.853  1.00 20.00    +0.119 HD
ATOM    108 H108 LIG A   1      15.135  29.551  16.095  1.00 20.00    +0.029 H 
ATOM    109 H109 LIG A   1      15.958  28.023  16.311  1.00 20.00    +0.029 H 
ATOM    110 H110 LIG A   1      13.755  27.913  17.288  1.00 20.00    +0.029 H 
ATOM    111 H111 LIG A   1      14.982  27.694  18.517  1.00 20.00    +0.029 H 
ATOM    112 H112 LIG A   1      13.561  30.364  18.020  1.00 20.00    +0.049 H 
ATOM    113 H113 LIG A   1      14.616  29.989  19.388  1.00 20.00    +0.049 H 
ATOM    114 H114 LIG A   1      11.982  28.766  18.788  1.00 20.00    +0.163 HD
ATOM    115 H115 LIG A   1      13.768  27.392  21.899  1.00 20.00    +0.191 HD
ATOM    116 H116 LIG A   1      11.647  27.452  21.854  1.00 20.00    +0.159 HD
ATOM    117 H117 LIG A   1      10.922  28.502  20.785  1.00 20.00    +0.159 HD
ENDROOT
TORSDOF 0
                                                                                                                        
ENDMDL
MODEL 5
REMARK VINA RESULT:   -11.551     10.894     15.071
REMARK INTER + INTRA:         -11.551
REMARK INTER:                 -11.551
REMARK INTRA:                   0.000
REMARK UNBOUND:                 0.000
ROOT
ATOM      1 C1   LIG A   1      18.601  17.509   8.456  1.00 20.00    -0.060 C 
ATOM      2 C2   LIG A   1      18.053  16.777   7.214  1.00 20.00    -0.016 C 
ATOM      3 C3   LIG A   1      18.960  17.132   5.987  1.00 20.00    -0.023 C 
ATOM      4 C4   LIG A   1      19.836  16.005   5.503  1.00 20.00    -0.044 A 
ATOM      5 C5   LIG A   1      20.922  15.562   6.259  1.00 20.00    -0.058 A 
ATOM      6 C6   LIG A   1      21.446  14.291   6.030  1.00 20.00    -0.054 A 
ATOM      7 C7   LIG A   1      20.864  13.438   5.074  1.00 20.00    +0.009 A 
ATOM      8 C8   LIG A   1      19.876  13.957   4.218  1.00 20.00    +0.130 A 
ATOM      9 C9   LIG A   1      19.420  15.265   4.391  1.00 20.00    -0.016 A 
ATOM     10 O10  LIG A   1      19.299  13.110   3.297  1.00 20.00    -0.464 OA
ATOM     11 C11  LIG A   1      17.957  13.251   3.006  1.00 20.00    +0.104 C 
ATOM     12 C12  LIG A   1      16.892  12.937   3.775  1.00 20.00    +0.082 C 
ATOM     13 C13  LIG A   1      15.543  13.037   3.177  1.00 20.00    -0.010 A 
ATOM     14 C14  LIG A   1      15.078  14.252   2.661  1.00 20.00    -0.052 A 
ATOM     15 C15  LIG A   1      13.805  14.345   2.087  1.00 20.00    -0.038 A 
ATOM     16 C16  LIG A   1      12.962  13.230   1.993  1.00 20.00    +0.034 A 
ATOM     17 N17  LIG A   1      11.677  13.416   1.471  1.00 20.00    -0.385 NA
ATOM     18 C18  LIG A   1      10.830  12.264   1.177  1.00 20.00    +0.016 C 
ATOM     19 C19  LIG A   1       9.490  12.710   0.584  1.00 20.00    -0.023 C 
ATOM     20 C20  LIG A   1       8.569  13.431   1.580  1.00 20.00    -0.003 C 
ATOM     21 N21  LIG A   1       9.080  14.699   2.107  1.00 20.00    -0.317 NA
ATOM     22 C22  LIG A   1       9.069  15.805   1.150  1.00 20.00    -0.005 C 
ATOM     23 C23  LIG A   1       7.682  16.390   0.857  1.00 20.00    -0.039 C 
ATOM     24 C24  LIG A   1       7.087  17.260   1.972  1.00 20.00    -0.040 C 
ATOM     25 C25  LIG A   1       6.853  16.531   3.293  1.00 20.00    -0.008 C 
ATOM     26 N26  LIG A   1       6.068  17.374   4.196  1.00 20.00    -0.330 NA
ATOM     27 C27  LIG A   1      13.414  12.031   2.551  1.00 20.00    -0.038 A 
ATOM     28 C28  LIG A   1      14.692  11.929   3.119  1.00 20.00    -0.052 A 
ATOM     29 C29  LIG A   1      17.070  12.355   5.151  1.00 20.00    +0.264 C 
ATOM     30 O30  LIG A   1      16.646  11.227   5.405  1.00 20.00    -0.268 OA
ATOM     31 N31  LIG A   1      17.741  13.135   6.085  1.00 20.00    -0.277 NA
ATOM     32 C32  LIG A   1      18.559  12.419   7.073  1.00 20.00    +0.029 C 
ATOM     33 C33  LIG A   1      19.285  11.117   6.666  1.00 20.00    -0.034 C 
ATOM     34 C34  LIG A   1      20.047  11.010   5.330  1.00 20.00    -0.034 C 
ATOM     35 C35  LIG A   1      21.245  11.965   5.088  1.00 20.00    +0.085 C 
ATOM     36 C36  LIG A   1      22.022  11.574   3.833  1.00 20.00    +0.311 C 
ATOM     37 O37  LIG A   1      22.377  12.295   2.914  1.00 20.00    -0.252 OA
ATOM     38 O38  LIG A   1      22.393  10.275   3.832  1.00 20.00    -0.481 OA
ATOM     39 C39  LIG A   1      17.277  14.443   6.315  1.00 20.00    +0.246 C 
ATOM     40 O40  LIG A   1      16.401  14.978   5.624  1.00 20.00    -0.273 OA
ATOM     41 C41  LIG A   1      17.841  15.252   7.525  1.00 20.00    +0.088 C 
ATOM     42 N42  LIG A   1      16.870  15.095   8.639  1.00 20.00    -0.320 NA
ATOM     43 C43  LIG A   1      19.759  15.326   5.417  1.00 20.00    -0.056 C 
ATOM     44 C44  LIG A   1      19.856  13.824   5.211  1.00 20.00    -0.002 C 
ATOM     45 S45  LIG A   1      18.555  13.220   4.097  1.00 20.00    -0.087 SA
ATOM     46 C46  LIG A   1      17.156  13.308   5.172  1.00 20.00    +0.205 C 
ATOM     47 O47  LIG A   1      17.279  13.357   6.392  1.00 20.00    -0.285 OA
ATOM     48 C48  LIG A   1      15.796  13.205   4.456  1.00 20.00    +0.074 C 
ATOM     49 N49  LIG A   1      15.303  11.812   4.543  1.00 20.00    -0.321 NA
ATOM     50 C50  LIG A   1      14.793  14.173   5.101  1.00 20.00    -0.028 C 
ATOM     51 C51  LIG A   1      13.630  14.580   4.190  1.00 20.00    -0.034 C 
ATOM     52 C52  LIG A   1      12.763  13.418   3.701  1.00 20.00    +0.018 C 
ATOM     53 N53  LIG A   1      11.552  13.922   3.062  1.00 20.00    -0.357 NA
ATOM     54 C54  LIG A   1      11.567  14.456   1.820  1.00 20.00    +0.185 C 
ATOM     55 N55  LIG A   1      12.571  14.463   1.023  1.00 20.00    -0.270 NA
ATOM     56 N56  LIG A   1      10.369  14.983   1.500  1.00 20.00    -0.370 NA
ATOM     57 H57  LIG A   1      17.930  17.408   9.315  1.00 20.00    +0.023 H 
ATOM     58 H58  LIG A   1      19.582  17.118   8.745  1.00 20.00    +0.023 H 
ATOM     59 H59  LIG A   1      18.704  18.581   8.260  1.00 20.00    +0.023 H 
ATOM     60 H60  LIG A   1      17.070  17.225   7.007  1.00 20.00    +0.032 H 
ATOM     61 H61  LIG A   1      18.302  17.452   5.167  1.00 20.00    +0.032 H 
ATOM     62 H62  LIG A   1      19.590  18.007   6.195  1.00 20.00    +0.032 H 
ATOM     63 H63  LIG A   1      21.296  16.154   7.090  1.00 20.00    +0.063 H 
ATOM     64 H64  LIG A   1      22.246  13.933   6.678  1.00 20.00    +0.063 H 
ATOM     65 H65  LIG A   1      18.613  15.647   3.770  1.00 20.00    +0.067 H 
ATOM     66 H66  LIG A   1      17.862  13.580   1.975  1.00 20.00    +0.105 H 
ATOM     67 H67  LIG A   1      15.689  15.150   2.728  1.00 20.00    +0.063 H 
ATOM     68 H68  LIG A   1      13.468  15.314   1.723  1.00 20.00    +0.064 H 
ATOM     69 H69  LIG A   1      11.686  14.108   0.724  1.00 20.00    +0.160 HD
ATOM     70 H70  LIG A   1      11.334  11.619   0.447  1.00 20.00    +0.049 H 
ATOM     71 H71  LIG A   1      10.641  11.677   2.082  1.00 20.00    +0.049 H 
ATOM     72 H72  LIG A   1       8.962  11.811   0.238  1.00 20.00    +0.030 H 
ATOM     73 H73  LIG A   1       9.657  13.327  -0.308  1.00 20.00    +0.030 H 
ATOM     74 H74  LIG A   1       8.408  12.766   2.439  1.00 20.00    +0.043 H 
ATOM     75 H75  LIG A   1       7.581  13.566   1.128  1.00 20.00    +0.043 H 
ATOM     76 H76  LIG A   1      10.054  14.534   2.401  1.00 20.00    +0.122 HD
ATOM     77 H77  LIG A   1       9.699  16.605   1.558  1.00 20.00    +0.043 H 
ATOM     78 H78  LIG A   1       9.544  15.504   0.208  1.00 20.00    +0.043 H 
ATOM     79 H79  LIG A   1       6.970  15.601   0.589  1.00 20.00    +0.028 H 
ATOM     80 H80  LIG A   1       7.773  17.023  -0.036  1.00 20.00    +0.028 H 
ATOM     81 H81  LIG A   1       6.134  17.661   1.600  1.00 20.00    +0.028 H 
ATOM     82 H82  LIG A   1       7.739  18.127   2.142  1.00 20.00    +0.028 H 
ATOM     83 H83  LIG A   1       6.321  15.588   3.126  1.00 20.00    +0.043 H 
ATOM     84 H84  LIG A   1       7.805  16.306   3.783  1.00 20.00    +0.043 H 
ATOM     85 H85  LIG A   1       5.920  16.867   5.068  1.00 20.00    +0.118 HD
ATOM     86 H86  LIG A   1       5.143  17.526   3.793  1.00 20.00    +0.118 HD
ATOM     87 H87  LIG A   1      12.790  11.143   2.555  1.00 20.00    +0.064 H 
ATOM     88 H88  LIG A   1      15.004  10.967   3.522  1.00 20.00    +0.063 H 
ATOM     89 H89  LIG A   1      19.335  13.084   7.449  1.00 20.00    +0.050 H 
ATOM     90 H90  LIG A   1      17.906  12.203   7.928  1.00 20.00    +0.050 H 
ATOM     91 H91  LIG A   1      18.552  10.300   6.683  1.00 20.00    +0.029 H 
ATOM     92 H92  LIG A   1      19.989  10.872   7.473  1.00 20.00    +0.029 H 
ATOM     93 H93  LIG A   1      20.434   9.982   5.302  1.00 20.00    +0.028 H 
ATOM     94 H94  LIG A   1      19.344  11.041   4.495  1.00 20.00    +0.028 H 
ATOM     95 H95  LIG A   1      21.951  11.810   5.915  1.00 20.00    +0.047 H 
ATOM     96 H96  LIG A   1      22.888  10.178   2.989  1.00 20.00    +0.296 HD
ATOM     97 H97  LIG A   1      18.789  14.856   7.881  1.00 20.00    +0.057 H 
ATOM     98 H98  LIG A   1      15.999  15.556   8.359  1.00 20.00    +0.119 HD
ATOM     99 H99  LIG A   1      16.620  14.111   8.750  1.00 20.00    +0.119 HD
ATOM    100 H100 LIG A   1      20.581  15.664   6.057  1.00 20.00    +0.024 H 
ATOM    101 H101 LIG A   1      19.838  15.866   4.467  1.00 20.00    +0.024 H 
ATOM    102 H102 LIG A   1      18.822  15.615   5.904  1.00 20.00    +0.024 H 
ATOM    103 H103 LIG A   1      20.820  13.591   4.748  1.00 20.00    +0.038 H 
ATOM    104 H104 LIG A   1      19.823  13.292   6.166  1.00 20.00    +0.038 H 
ATOM    105 H105 LIG A   1      15.921  13.473   3.401  1.00 20.00    +0.055 H 
ATOM    106 H106 LIG A   1      15.967  11.201   4.064  1.00 20.00    +0.119 HD
ATOM    107 H107 LIG A   1      15.313  11.522   5.523  1.00 20.00    +0.119 HD
ATOM    108 H108 LIG A   1      14.395  13.749   6.032  1.00 20.00    +0.029 H 
ATOM    109 H109 LIG A   1      15.316  15.094   5.397  1.00 20.00    +0.029 H 
ATOM    110 H110 LIG A   1      13.004  15.297   4.737  1.00 20.00    +0.029 H 
ATOM    111 H111 LIG A   1      14.032  15.128   3.329  1.00 20.00    +0.029 H 
ATOM    112 H112 LIG A   1      12.459  12.797   4.551  1.00 20.00    +0.049 H 
ATOM    113 H113 LIG A   1      13.310  12.776   3.002  1.00 20.00    +0.049 H 
ATOM    114 H114 LIG A   1      10.939  14.411   3.703  1.00 20.00    +0.163 HD
ATOM    115 H115 LIG A   1      12.320  14.947   0.161  1.00 20.00    +0.191 HD
ATOM    116 H116 LIG A   1      10.240  15.164   0.512  1.00 20.00    +0.159 HD
ATOM    117 H117 LIG A   1       9.600  14.432   1.863  1.00 20.00    +0.159 HD
ENDROOT
TORSDOF 0
                                                                                                                        
ENDMDL
MODEL 6
REMARK VINA RESULT:   -11.503      6.832     11.782
REMARK INTER + INTRA:         -11.503
REMARK INTER:                 -11.503
REMARK INTRA:                   0.000
REMARK UNBOUND:                 0.000
ROOT
ATOM      1 C1   LIG A   1      20.319  20.220  12.208  1.00 20.00    -0.060 C 
ATOM      2 C2   LIG A   1      20.094  19.771  10.749  1.00 20.00    -0.016 C 
ATOM      3 C3   LIG A   1      19.866  21.046   9.867  1.00 20.00    -0.023 C 
ATOM      4 C4   LIG A   1      21.005  21.382   8.939  1.00 20.00    -0.044 A 
ATOM      5 C5   LIG A   1      22.219  21.862   9.433  1.00 20.00    -0.058 A 
ATOM      6 C6   LIG A   1      23.368  21.763   8.649  1.00 20.00    -0.054 A 
ATOM      7 C7   LIG A   1      23.321  21.147   7.385  1.00 20.00    +0.009 A 
ATOM      8 C8   LIG A   1      22.067  20.814   6.842  1.00 20.00    +0.130 A 
ATOM      9 C9   LIG A   1      20.908  21.003   7.595  1.00 20.00    -0.016 A 
ATOM     10 O10  LIG A   1      22.032  20.195   5.610  1.00 20.00    -0.464 OA
ATOM     11 C11  LIG A   1      21.077  19.227   5.375  1.00 20.00    +0.104 C 
ATOM     12 C12  LIG A   1      21.014  17.971   5.868  1.00 20.00    +0.082 C 
ATOM     13 C13  LIG A   1      19.971  17.064   5.342  1.00 20.00    -0.010 A 
ATOM     14 C14  LIG A   1      18.615  17.398   5.445  1.00 20.00    -0.052 A 
ATOM     15 C15  LIG A   1      17.628  16.544   4.939  1.00 20.00    -0.038 A 
ATOM     16 C16  LIG A   1      17.957  15.342   4.302  1.00 20.00    +0.034 A 
ATOM     17 N17  LIG A   1      16.914  14.508   3.886  1.00 20.00    -0.385 NA
ATOM     18 C18  LIG A   1      17.193  13.341   3.054  1.00 20.00    +0.016 C 
ATOM     19 C19  LIG A   1      15.899  12.605   2.696  1.00 20.00    -0.023 C 
ATOM     20 C20  LIG A   1      15.231  11.893   3.882  1.00 20.00    -0.003 C 
ATOM     21 N21  LIG A   1      14.768  12.767   4.962  1.00 20.00    -0.317 NA
ATOM     22 C22  LIG A   1      13.577  13.554   4.640  1.00 20.00    -0.005 C 
ATOM     23 C23  LIG A   1      12.267  12.758   4.611  1.00 20.00    -0.039 C 
ATOM     24 C24  LIG A   1      11.712  12.356   5.983  1.00 20.00    -0.040 C 
ATOM     25 C25  LIG A   1      12.624  11.438   6.795  1.00 20.00    -0.008 C 
ATOM     26 N26  LIG A   1      11.904  10.925   7.961  1.00 20.00    -0.330 NA
ATOM     27 C27  LIG A   1      19.310  14.993   4.243  1.00 20.00    -0.038 A 
ATOM     28 C28  LIG A   1      20.305  15.847   4.739  1.00 20.00    -0.052 A 
ATOM     29 C29  LIG A   1      22.065  17.451   6.811  1.00 20.00    +0.264 C 
ATOM     30 O30  LIG A   1      22.767  16.492   6.488  1.00 20.00    -0.268 OA
ATOM     31 N31  LIG A   1      22.206  18.112   8.026  1.00 20.00    -0.277 NA
ATOM     32 C32  LIG A   1      23.562  18.173   8.586  1.00 20.00    +0.029 C 
ATOM     33 C33  LIG A   1      24.779  18.279   7.638  1.00 20.00    -0.034 C 
ATOM     34 C34  LIG A   1      24.774  19.246   6.437  1.00 20.00    -0.034 C 
ATOM     35 C35  LIG A   1      24.633  20.765   6.715  1.00 20.00    +0.085 C 
ATOM     36 C36  LIG A   1      24.879  21.586   5.452  1.00 20.00    +0.311 C 
ATOM     37 O37  LIG A   1      24.191  22.485   4.995  1.00 20.00    -0.252 OA
ATOM     38 O38  LIG A   1      26.049  21.282   4.850  1.00 20.00    -0.481 OA
ATOM     39 C39  LIG A   1      21.063  18.278   8.829  1.00 20.00    +0.246 C 
ATOM     40 O40  LIG A   1      19.922  17.998   8.443  1.00 20.00    -0.273 OA
ATOM     41 C41  LIG A   1      21.229  18.785  10.297  1.00 20.00    +0.088 C 
ATOM     42 N42  LIG A   1      21.230  17.583  11.171  1.00 20.00    -0.320 NA
ATOM     43 C43  LIG A   1      21.437  21.021   8.540  1.00 20.00    -0.056 C 
ATOM     44 C44  LIG A   1      22.530  20.451   7.653  1.00 20.00    -0.002 C 
ATOM     45 S45  LIG A   1      21.842  19.399   6.342  1.00 20.00    -0.087 SA
ATOM     46 C46  LIG A   1      21.411  17.967   7.283  1.00 20.00    +0.205 C 
ATOM     47 O47  LIG A   1      21.902  17.744   8.385  1.00 20.00    -0.285 OA
ATOM     48 C48  LIG A   1      20.468  16.989   6.557  1.00 20.00    +0.074 C 
ATOM     49 N49  LIG A   1      21.265  15.895   5.960  1.00 20.00    -0.321 NA
ATOM     50 C50  LIG A   1      19.437  16.426   7.547  1.00 20.00    -0.028 C 
ATOM     51 C51  LIG A   1      18.150  15.910   6.897  1.00 20.00    -0.034 C 
ATOM     52 C52  LIG A   1      18.352  14.777   5.888  1.00 20.00    +0.018 C 
ATOM     53 N53  LIG A   1      17.068  14.188   5.521  1.00 20.00    -0.357 NA
ATOM     54 C54  LIG A   1      16.211  14.808   4.679  1.00 20.00    +0.185 C 
ATOM     55 N55  LIG A   1      16.459  15.876   4.015  1.00 20.00    -0.270 NA
ATOM     56 N56  LIG A   1      15.037  14.150   4.605  1.00 20.00    -0.370 NA
ATOM     57 H57  LIG A   1      20.349  19.367  12.894  1.00 20.00    +0.023 H 
ATOM     58 H58  LIG A   1      21.260  20.770  12.311  1.00 20.00    +0.023 H 
ATOM     59 H59  LIG A   1      19.504  20.868  12.544  1.00 20.00    +0.023 H 
ATOM     60 H60  LIG A   1      19.140  19.223  10.744  1.00 20.00    +0.032 H 
ATOM     61 H61  LIG A   1      18.956  20.883   9.273  1.00 20.00    +0.032 H 
ATOM     62 H62  LIG A   1      19.641  21.925  10.484  1.00 20.00    +0.032 H 
ATOM     63 H63  LIG A   1      22.298  22.216  10.458  1.00 20.00    +0.063 H 
ATOM     64 H64  LIG A   1      24.319  22.076   9.079  1.00 20.00    +0.063 H 
ATOM     65 H65  LIG A   1      19.944  20.688   7.201  1.00 20.00    +0.067 H 
ATOM     66 H66  LIG A   1      20.392  19.597   4.619  1.00 20.00    +0.105 H 
ATOM     67 H67  LIG A   1      18.309  18.313   5.949  1.00 20.00    +0.063 H 
ATOM     68 H68  LIG A   1      16.583  16.826   5.064  1.00 20.00    +0.064 H 
ATOM     69 H69  LIG A   1      16.122  15.056   3.555  1.00 20.00    +0.160 HD
ATOM     70 H70  LIG A   1      17.676  13.664   2.124  1.00 20.00    +0.049 H 
ATOM     71 H71  LIG A   1      17.867  12.647   3.568  1.00 20.00    +0.049 H 
ATOM     72 H72  LIG A   1      16.147  11.838   1.949  1.00 20.00    +0.030 H 
ATOM     73 H73  LIG A   1      15.196  13.289   2.207  1.00 20.00    +0.030 H 
ATOM     74 H74  LIG A   1      15.961  11.199   4.319  1.00 20.00    +0.043 H 
ATOM     75 H75  LIG A   1      14.415  11.262   3.514  1.00 20.00    +0.043 H 
ATOM     76 H76  LIG A   1      15.538  13.417   5.176  1.00 20.00    +0.122 HD
ATOM     77 H77  LIG A   1      13.483  14.341   5.399  1.00 20.00    +0.043 H 
ATOM     78 H78  LIG A   1      13.708  14.077   3.685  1.00 20.00    +0.043 H 
ATOM     79 H79  LIG A   1      12.360  11.869   3.978  1.00 20.00    +0.028 H 
ATOM     80 H80  LIG A   1      11.509  13.389   4.125  1.00 20.00    +0.028 H 
ATOM     81 H81  LIG A   1      10.748  11.857   5.812  1.00 20.00    +0.028 H 
ATOM     82 H82  LIG A   1      11.490  13.260   6.565  1.00 20.00    +0.028 H 
ATOM     83 H83  LIG A   1      12.970  10.596   6.185  1.00 20.00    +0.043 H 
ATOM     84 H84  LIG A   1      13.501  11.986   7.153  1.00 20.00    +0.043 H 
ATOM     85 H85  LIG A   1      12.529  10.312   8.485  1.00 20.00    +0.118 HD
ATOM     86 H86  LIG A   1      11.129  10.340   7.646  1.00 20.00    +0.118 HD
ATOM     87 H87  LIG A   1      19.628  14.052   3.806  1.00 20.00    +0.064 H 
ATOM     88 H88  LIG A   1      21.344  15.538   4.651  1.00 20.00    +0.063 H 
ATOM     89 H89  LIG A   1      23.637  19.027   9.258  1.00 20.00    +0.050 H 
ATOM     90 H90  LIG A   1      23.686  17.282   9.215  1.00 20.00    +0.050 H 
ATOM     91 H91  LIG A   1      24.989  17.277   7.243  1.00 20.00    +0.029 H 
ATOM     92 H92  LIG A   1      25.653  18.520   8.258  1.00 20.00    +0.029 H 
ATOM     93 H93  LIG A   1      25.742  19.090   5.940  1.00 20.00    +0.028 H 
ATOM     94 H94  LIG A   1      24.048  18.913   5.691  1.00 20.00    +0.028 H 
ATOM     95 H95  LIG A   1      25.449  21.044   7.395  1.00 20.00    +0.047 H 
ATOM     96 H96  LIG A   1      26.076  21.890   4.079  1.00 20.00    +0.296 HD
ATOM     97 H97  LIG A   1      22.181  19.287  10.456  1.00 20.00    +0.057 H 
ATOM     98 H98  LIG A   1      20.302  17.155  11.111  1.00 20.00    +0.119 HD
ATOM     99 H99  LIG A   1      21.867  16.878  10.795  1.00 20.00    +0.119 HD
ATOM    100 H100 LIG A   1      21.879  21.684   9.291  1.00 20.00    +0.024 H 
ATOM    101 H101 LIG A   1      20.719  21.613   7.960  1.00 20.00    +0.024 H 
ATOM    102 H102 LIG A   1      20.888  20.238   9.073  1.00 20.00    +0.024 H 
ATOM    103 H103 LIG A   1      23.060  21.276   7.168  1.00 20.00    +0.038 H 
ATOM    104 H104 LIG A   1      23.268  19.899   8.243  1.00 20.00    +0.038 H 
ATOM    105 H105 LIG A   1      19.939  17.521   5.758  1.00 20.00    +0.055 H 
ATOM    106 H106 LIG A   1      21.906  16.296   5.271  1.00 20.00    +0.119 HD
ATOM    107 H107 LIG A   1      21.857  15.486   6.686  1.00 20.00    +0.119 HD
ATOM    108 H108 LIG A   1      19.885  15.628   8.154  1.00 20.00    +0.029 H 
ATOM    109 H109 LIG A   1      19.152  17.213   8.260  1.00 20.00    +0.029 H 
ATOM    110 H110 LIG A   1      17.477  15.571   7.696  1.00 20.00    +0.029 H 
ATOM    111 H111 LIG A   1      17.639  16.749   6.411  1.00 20.00    +0.029 H 
ATOM    112 H112 LIG A   1      18.967  13.987   6.334  1.00 20.00    +0.049 H 
ATOM    113 H113 LIG A   1      18.868  15.129   4.988  1.00 20.00    +0.049 H 
ATOM    114 H114 LIG A   1      16.608  13.725   6.296  1.00 20.00    +0.163 HD
ATOM    115 H115 LIG A   1      15.635  16.142   3.475  1.00 20.00    +0.191 HD
ATOM    116 H116 LIG A   1      14.459  14.410   3.816  1.00 20.00    +0.159 HD
ATOM    117 H117 LIG A   1      15.161  13.144   4.639  1.00 20.00    +0.159 HD
ENDROOT
TORSDOF 0
                                                                                                                        
ENDMDL
MODEL 7
REMARK VINA RESULT:   -11.413      9.732     14.087
REMARK INTER + INTRA:         -11.413
REMARK INTER:                 -11.413
REMARK INTRA:                   0.000
REMARK UNBOUND:                 0.000
ROOT
ATOM      1 C1   LIG A   1      18.626  14.839  11.626  1.00 20.00    -0.060 C 
ATOM      2 C2   LIG A   1      18.197  15.067  10.162  1.00 20.00    -0.016 C 
ATOM      3 C3   LIG A   1      18.096  16.610   9.909  1.00 20.00    -0.023 C 
ATOM      4 C4   LIG A   1      19.183  17.178   9.032  1.00 20.00    -0.044 A 
ATOM      5 C5   LIG A   1      20.499  17.275   9.488  1.00 20.00    -0.058 A 
ATOM      6 C6   LIG A   1      21.539  17.389   8.568  1.00 20.00    -0.054 A 
ATOM      7 C7   LIG A   1      21.277  17.365   7.186  1.00 20.00    +0.009 A 
ATOM      8 C8   LIG A   1      19.941  17.427   6.750  1.00 20.00    +0.130 A 
ATOM      9 C9   LIG A   1      18.902  17.407   7.681  1.00 20.00    -0.016 A 
ATOM     10 O10  LIG A   1      19.693  17.386   5.394  1.00 20.00    -0.464 OA
ATOM     11 C11  LIG A   1      18.578  16.713   4.938  1.00 20.00    +0.104 C 
ATOM     12 C12  LIG A   1      18.360  15.381   4.891  1.00 20.00    +0.082 C 
ATOM     13 C13  LIG A   1      17.141  14.894   4.209  1.00 20.00    -0.010 A 
ATOM     14 C14  LIG A   1      15.872  15.299   4.641  1.00 20.00    -0.052 A 
ATOM     15 C15  LIG A   1      14.718  14.846   3.990  1.00 20.00    -0.038 A 
ATOM     16 C16  LIG A   1      14.790  13.991   2.883  1.00 20.00    +0.034 A 
ATOM     17 N17  LIG A   1      13.593  13.525   2.330  1.00 20.00    -0.385 NA
ATOM     18 C18  LIG A   1      13.603  12.789   1.070  1.00 20.00    +0.016 C 
ATOM     19 C19  LIG A   1      12.180  12.413   0.646  1.00 20.00    -0.023 C 
ATOM     20 C20  LIG A   1      11.519  11.347   1.534  1.00 20.00    -0.003 C 
ATOM     21 N21  LIG A   1      11.304  11.736   2.930  1.00 20.00    -0.317 NA
ATOM     22 C22  LIG A   1      10.230  12.709   3.134  1.00 20.00    -0.005 C 
ATOM     23 C23  LIG A   1       8.813  12.144   2.986  1.00 20.00    -0.039 C 
ATOM     24 C24  LIG A   1       8.330  11.267   4.149  1.00 20.00    -0.040 C 
ATOM     25 C25  LIG A   1       9.155  10.003   4.379  1.00 20.00    -0.008 C 
ATOM     26 N26  LIG A   1       8.473   9.130   5.336  1.00 20.00    -0.330 NA
ATOM     27 C27  LIG A   1      16.057  13.555   2.487  1.00 20.00    -0.038 A 
ATOM     28 C28  LIG A   1      17.218  14.012   3.127  1.00 20.00    -0.052 A 
ATOM     29 C29  LIG A   1      19.397  14.405   5.377  1.00 20.00    +0.264 C 
ATOM     30 O30  LIG A   1      19.903  13.598   4.596  1.00 20.00    -0.268 OA
ATOM     31 N31  LIG A   1      19.754  14.480   6.718  1.00 20.00    -0.277 NA
ATOM     32 C32  LIG A   1      21.149  14.155   7.045  1.00 20.00    +0.029 C 
ATOM     33 C33  LIG A   1      22.273  14.515   6.048  1.00 20.00    -0.034 C 
ATOM     34 C34  LIG A   1      22.312  15.889   5.349  1.00 20.00    -0.034 C 
ATOM     35 C35  LIG A   1      22.443  17.159   6.229  1.00 20.00    +0.085 C 
ATOM     36 C36  LIG A   1      22.698  18.400   5.378  1.00 20.00    +0.311 C 
ATOM     37 O37  LIG A   1      22.124  19.476   5.429  1.00 20.00    -0.252 OA
ATOM     38 O38  LIG A   1      23.744  18.251   4.537  1.00 20.00    -0.481 OA
ATOM     39 C39  LIG A   1      18.733  14.417   7.683  1.00 20.00    +0.246 C 
ATOM     40 O40  LIG A   1      17.530  14.448   7.394  1.00 20.00    -0.273 OA
ATOM     41 C41  LIG A   1      19.113  14.244   9.188  1.00 20.00    +0.088 C 
ATOM     42 N42  LIG A   1      19.003  12.795   9.497  1.00 20.00    -0.320 NA
ATOM     43 C43  LIG A   1      19.512  16.973   8.463  1.00 20.00    -0.056 C 
ATOM     44 C44  LIG A   1      20.413  16.710   7.268  1.00 20.00    -0.002 C 
ATOM     45 S45  LIG A   1      19.446  16.382   5.765  1.00 20.00    -0.087 SA
ATOM     46 C46  LIG A   1      18.881  14.744   6.108  1.00 20.00    +0.205 C 
ATOM     47 O47  LIG A   1      19.430  14.030   6.942  1.00 20.00    -0.285 OA
ATOM     48 C48  LIG A   1      17.730  14.266   5.203  1.00 20.00    +0.074 C 
ATOM     49 N49  LIG A   1      18.283  13.442   4.105  1.00 20.00    -0.321 NA
ATOM     50 C50  LIG A   1      16.719  13.456   6.028  1.00 20.00    -0.028 C 
ATOM     51 C51  LIG A   1      15.311  13.400   5.427  1.00 20.00    -0.034 C 
ATOM     52 C52  LIG A   1      15.234  12.777   4.032  1.00 20.00    +0.018 C 
ATOM     53 N53  LIG A   1      13.845  12.537   3.658  1.00 20.00    -0.357 NA
ATOM     54 C54  LIG A   1      13.023  13.540   3.274  1.00 20.00    +0.185 C 
ATOM     55 N55  LIG A   1      13.376  14.754   3.063  1.00 20.00    -0.270 NA
ATOM     56 N56  LIG A   1      11.757  13.103   3.120  1.00 20.00    -0.370 NA
ATOM     57 H57  LIG A   1      18.582  13.781  11.901  1.00 20.00    +0.023 H 
ATOM     58 H58  LIG A   1      19.648  15.191  11.798  1.00 20.00    +0.023 H 
ATOM     59 H59  LIG A   1      17.960  15.371  12.312  1.00 20.00    +0.023 H 
ATOM     60 H60  LIG A   1      17.172  14.678  10.082  1.00 20.00    +0.032 H 
ATOM     61 H61  LIG A   1      17.120  16.809   9.444  1.00 20.00    +0.032 H 
ATOM     62 H62  LIG A   1      18.072  17.170  10.853  1.00 20.00    +0.032 H 
ATOM     63 H63  LIG A   1      20.728  17.158  10.545  1.00 20.00    +0.063 H 
ATOM     64 H64  LIG A   1      22.563  17.389   8.938  1.00 20.00    +0.063 H 
ATOM     65 H65  LIG A   1      17.868  17.391   7.344  1.00 20.00    +0.067 H 
ATOM     66 H66  LIG A   1      17.894  17.437   4.506  1.00 20.00    +0.105 H 
ATOM     67 H67  LIG A   1      15.765  15.947   5.508  1.00 20.00    +0.063 H 
ATOM     68 H68  LIG A   1      13.748  15.160   4.373  1.00 20.00    +0.064 H 
ATOM     69 H69  LIG A   1      12.871  14.242   2.370  1.00 20.00    +0.160 HD
ATOM     70 H70  LIG A   1      14.042  13.417   0.286  1.00 20.00    +0.049 H 
ATOM     71 H71  LIG A   1      14.202  11.876   1.155  1.00 20.00    +0.049 H 
ATOM     72 H72  LIG A   1      12.231  12.006  -0.373  1.00 20.00    +0.030 H 
ATOM     73 H73  LIG A   1      11.553  13.311   0.584  1.00 20.00    +0.030 H 
ATOM     74 H74  LIG A   1      12.166  10.460   1.542  1.00 20.00    +0.043 H 
ATOM     75 H75  LIG A   1      10.582  11.020   1.072  1.00 20.00    +0.043 H 
ATOM     76 H76  LIG A   1      12.185  12.150   3.268  1.00 20.00    +0.122 HD
ATOM     77 H77  LIG A   1      10.335  13.112   4.148  1.00 20.00    +0.043 H 
ATOM     78 H78  LIG A   1      10.354  13.565   2.460  1.00 20.00    +0.043 H 
ATOM     79 H79  LIG A   1       8.703  11.595   2.044  1.00 20.00    +0.028 H 
ATOM     80 H80  LIG A   1       8.124  12.997   2.913  1.00 20.00    +0.028 H 
ATOM     81 H81  LIG A   1       7.287  10.992   3.940  1.00 20.00    +0.028 H 
ATOM     82 H82  LIG A   1       8.311  11.865   5.070  1.00 20.00    +0.028 H 
ATOM     83 H83  LIG A   1       9.303   9.460   3.438  1.00 20.00    +0.043 H 
ATOM     84 H84  LIG A   1      10.137  10.253   4.789  1.00 20.00    +0.043 H 
ATOM     85 H85  LIG A   1       9.038   8.291   5.470  1.00 20.00    +0.118 HD
ATOM     86 H86  LIG A   1       7.588   8.817   4.934  1.00 20.00    +0.118 HD
ATOM     87 H87  LIG A   1      16.179  12.854   1.667  1.00 20.00    +0.064 H 
ATOM     88 H88  LIG A   1      18.182  13.657   2.767  1.00 20.00    +0.063 H 
ATOM     89 H89  LIG A   1      21.422  14.637   7.983  1.00 20.00    +0.050 H 
ATOM     90 H90  LIG A   1      21.187  13.075   7.239  1.00 20.00    +0.050 H 
ATOM     91 H91  LIG A   1      22.282  13.753   5.257  1.00 20.00    +0.029 H 
ATOM     92 H92  LIG A   1      23.229  14.380   6.572  1.00 20.00    +0.029 H 
ATOM     93 H93  LIG A   1      23.192  15.851   4.692  1.00 20.00    +0.028 H 
ATOM     94 H94  LIG A   1      21.477  15.978   4.651  1.00 20.00    +0.028 H 
ATOM     95 H95  LIG A   1      23.352  17.039   6.832  1.00 20.00    +0.047 H 
ATOM     96 H96  LIG A   1      23.797  19.118   4.079  1.00 20.00    +0.296 HD
ATOM     97 H97  LIG A   1      20.143  14.528   9.389  1.00 20.00    +0.057 H 
ATOM     98 H98  LIG A   1      18.016  12.533   9.412  1.00 20.00    +0.119 HD
ATOM     99 H99  LIG A   1      19.481  12.247   8.779  1.00 20.00    +0.119 HD
ATOM    100 H100 LIG A   1      20.123  17.209   9.341  1.00 20.00    +0.024 H 
ATOM    101 H101 LIG A   1      18.848  17.826   8.284  1.00 20.00    +0.024 H 
ATOM    102 H102 LIG A   1      18.897  16.102   8.714  1.00 20.00    +0.024 H 
ATOM    103 H103 LIG A   1      21.021  17.600   7.080  1.00 20.00    +0.038 H 
ATOM    104 H104 LIG A   1      21.104  15.887   7.469  1.00 20.00    +0.038 H 
ATOM    105 H105 LIG A   1      17.221  15.137   4.774  1.00 20.00    +0.055 H 
ATOM    106 H106 LIG A   1      18.913  14.022   3.547  1.00 20.00    +0.119 HD
ATOM    107 H107 LIG A   1      18.866  12.706   4.509  1.00 20.00    +0.119 HD
ATOM    108 H108 LIG A   1      17.087  12.434   6.190  1.00 20.00    +0.029 H 
ATOM    109 H109 LIG A   1      16.631  13.899   7.031  1.00 20.00    +0.029 H 
ATOM    110 H110 LIG A   1      14.670  12.833   6.115  1.00 20.00    +0.029 H 
ATOM    111 H111 LIG A   1      14.898  14.415   5.401  1.00 20.00    +0.029 H 
ATOM    112 H112 LIG A   1      15.754  11.812   4.026  1.00 20.00    +0.049 H 
ATOM    113 H113 LIG A   1      15.715  13.415   3.282  1.00 20.00    +0.049 H 
ATOM    114 H114 LIG A   1      13.390  11.845   4.243  1.00 20.00    +0.163 HD
ATOM    115 H115 LIG A   1      12.559  15.308   2.806  1.00 20.00    +0.191 HD
ATOM    116 H116 LIG A   1      11.158  13.729   2.598  1.00 20.00    +0.159 HD
ATOM    117 H117 LIG A   1      11.721  12.168   2.730  1.00 20.00    +0.159 HD
ENDROOT
TORSDOF 0
                                                                                                                        
ENDMDL
MODEL 8
REMARK VINA RESULT:   -11.363      4.506      7.052
REMARK INTER + INTRA:         -11.363
REMARK INTER:                 -11.363
REMARK INTRA:                   0.000
REMARK UNBOUND:                 0.000
ROOT
ATOM      1 C1   LIG A   1      20.209  16.754   4.113  1.00 20.00    -0.060 C 
ATOM      2 C2   LIG A   1      19.960  17.289   5.538  1.00 20.00    -0.016 C 
ATOM      3 C3   LIG A   1      18.473  16.985   5.930  1.00 20.00    -0.023 C 
ATOM      4 C4   LIG A   1      18.302  15.907   6.969  1.00 20.00    -0.044 A 
ATOM      5 C5   LIG A   1      18.563  14.569   6.667  1.00 20.00    -0.058 A 
ATOM      6 C6   LIG A   1      18.815  13.667   7.700  1.00 20.00    -0.054 A 
ATOM      7 C7   LIG A   1      18.849  14.103   9.037  1.00 20.00    +0.009 A 
ATOM      8 C8   LIG A   1      18.431  15.413   9.332  1.00 20.00    +0.130 A 
ATOM      9 C9   LIG A   1      18.089  16.285   8.298  1.00 20.00    -0.016 A 
ATOM     10 O10  LIG A   1      18.485  15.837  10.643  1.00 20.00    -0.464 OA
ATOM     11 C11  LIG A   1      18.833  17.145  10.910  1.00 20.00    +0.104 C 
ATOM     12 C12  LIG A   1      20.045  17.732  10.802  1.00 20.00    +0.082 C 
ATOM     13 C13  LIG A   1      20.199  19.116  11.299  1.00 20.00    -0.010 A 
ATOM     14 C14  LIG A   1      19.417  20.154  10.777  1.00 20.00    -0.052 A 
ATOM     15 C15  LIG A   1      19.556  21.463  11.253  1.00 20.00    -0.038 A 
ATOM     16 C16  LIG A   1      20.464  21.778  12.272  1.00 20.00    +0.034 A 
ATOM     17 N17  LIG A   1      20.598  23.120  12.645  1.00 20.00    -0.385 NA
ATOM     18 C18  LIG A   1      21.384  23.480  13.821  1.00 20.00    +0.016 C 
ATOM     19 C19  LIG A   1      21.357  24.994  14.052  1.00 20.00    -0.023 C 
ATOM     20 C20  LIG A   1      22.126  25.805  12.998  1.00 20.00    -0.003 C 
ATOM     21 N21  LIG A   1      21.603  25.719  11.632  1.00 20.00    -0.317 NA
ATOM     22 C22  LIG A   1      20.350  26.441  11.412  1.00 20.00    -0.005 C 
ATOM     23 C23  LIG A   1      20.488  27.967  11.352  1.00 20.00    -0.039 C 
ATOM     24 C24  LIG A   1      21.110  28.521  10.063  1.00 20.00    -0.040 C 
ATOM     25 C25  LIG A   1      22.542  28.060   9.800  1.00 20.00    -0.008 C 
ATOM     26 N26  LIG A   1      23.117  28.829   8.694  1.00 20.00    -0.330 NA
ATOM     27 C27  LIG A   1      21.273  20.747  12.756  1.00 20.00    -0.038 A 
ATOM     28 C28  LIG A   1      21.133  19.431  12.291  1.00 20.00    -0.052 A 
ATOM     29 C29  LIG A   1      21.246  16.956  10.335  1.00 20.00    +0.264 C 
ATOM     30 O30  LIG A   1      22.213  16.802  11.082  1.00 20.00    -0.268 OA
ATOM     31 N31  LIG A   1      21.193  16.420   9.053  1.00 20.00    -0.277 NA
ATOM     32 C32  LIG A   1      21.886  15.143   8.846  1.00 20.00    +0.029 C 
ATOM     33 C33  LIG A   1      21.932  14.102   9.988  1.00 20.00    -0.034 C 
ATOM     34 C34  LIG A   1      20.677  13.771  10.819  1.00 20.00    -0.034 C 
ATOM     35 C35  LIG A   1      19.446  13.177  10.087  1.00 20.00    +0.085 C 
ATOM     36 C36  LIG A   1      18.389  12.696  11.079  1.00 20.00    +0.311 C 
ATOM     37 O37  LIG A   1      17.191  12.934  11.074  1.00 20.00    -0.252 OA
ATOM     38 O38  LIG A   1      18.888  11.853  12.008  1.00 20.00    -0.481 OA
ATOM     39 C39  LIG A   1      20.895  17.284   7.984  1.00 20.00    +0.246 C 
ATOM     40 O40  LIG A   1      20.535  18.457   8.145  1.00 20.00    -0.273 OA
ATOM     41 C41  LIG A   1      21.074  16.775   6.519  1.00 20.00    +0.088 C 
ATOM     42 N42  LIG A   1      22.406  17.246   6.058  1.00 20.00    -0.320 NA
ATOM     43 C43  LIG A   1      18.631  15.725   7.547  1.00 20.00    -0.056 C 
ATOM     44 C44  LIG A   1      19.219  15.098   8.799  1.00 20.00    -0.002 C 
ATOM     45 S45  LIG A   1      19.348  16.304  10.151  1.00 20.00    -0.087 SA
ATOM     46 C46  LIG A   1      20.726  17.256   9.590  1.00 20.00    +0.205 C 
ATOM     47 O47  LIG A   1      21.514  16.826   8.754  1.00 20.00    -0.285 OA
ATOM     48 C48  LIG A   1      20.906  18.603  10.317  1.00 20.00    +0.074 C 
ATOM     49 N49  LIG A   1      21.924  18.451  11.380  1.00 20.00    -0.321 NA
ATOM     50 C50  LIG A   1      21.334  19.684   9.312  1.00 20.00    -0.028 C 
ATOM     51 C51  LIG A   1      21.017  21.117   9.752  1.00 20.00    -0.034 C 
ATOM     52 C52  LIG A   1      21.679  21.546  11.063  1.00 20.00    +0.018 C 
ATOM     53 N53  LIG A   1      21.529  22.984  11.261  1.00 20.00    -0.357 NA
ATOM     54 C54  LIG A   1      20.357  23.534  11.653  1.00 20.00    +0.185 C 
ATOM     55 N55  LIG A   1      19.314  22.885  12.018  1.00 20.00    -0.270 NA
ATOM     56 N56  LIG A   1      20.417  24.880  11.627  1.00 20.00    -0.370 NA
ATOM     57 H57  LIG A   1      21.189  17.057   3.732  1.00 20.00    +0.023 H 
ATOM     58 H58  LIG A   1      20.158  15.661   4.086  1.00 20.00    +0.023 H 
ATOM     59 H59  LIG A   1      19.463  17.149   3.415  1.00 20.00    +0.023 H 
ATOM     60 H60  LIG A   1      20.040  18.384   5.470  1.00 20.00    +0.032 H 
ATOM     61 H61  LIG A   1      18.030  17.918   6.306  1.00 20.00    +0.032 H 
ATOM     62 H62  LIG A   1      17.871  16.728   5.049  1.00 20.00    +0.032 H 
ATOM     63 H63  LIG A   1      18.673  14.246   5.635  1.00 20.00    +0.063 H 
ATOM     64 H64  LIG A   1      19.087  12.644   7.443  1.00 20.00    +0.063 H 
ATOM     65 H65  LIG A   1      17.825  17.317   8.520  1.00 20.00    +0.067 H 
ATOM     66 H66  LIG A   1      17.971  17.650  11.336  1.00 20.00    +0.105 H 
ATOM     67 H67  LIG A   1      18.711  19.961   9.971  1.00 20.00    +0.063 H 
ATOM     68 H68  LIG A   1      18.950  22.248  10.802  1.00 20.00    +0.064 H 
ATOM     69 H69  LIG A   1      19.700  23.599  12.600  1.00 20.00    +0.160 HD
ATOM     70 H70  LIG A   1      20.962  22.988  14.706  1.00 20.00    +0.049 H 
ATOM     71 H71  LIG A   1      22.424  23.155  13.711  1.00 20.00    +0.049 H 
ATOM     72 H72  LIG A   1      21.825  25.192  15.026  1.00 20.00    +0.030 H 
ATOM     73 H73  LIG A   1      20.322  25.347  14.135  1.00 20.00    +0.030 H 
ATOM     74 H74  LIG A   1      23.160  25.438  12.972  1.00 20.00    +0.043 H 
ATOM     75 H75  LIG A   1      22.196  26.848  13.323  1.00 20.00    +0.043 H 
ATOM     76 H76  LIG A   1      21.442  24.721  11.432  1.00 20.00    +0.122 HD
ATOM     77 H77  LIG A   1      19.930  26.097  10.459  1.00 20.00    +0.043 H 
ATOM     78 H78  LIG A   1      19.611  26.171  12.177  1.00 20.00    +0.043 H 
ATOM     79 H79  LIG A   1      21.040  28.348  12.219  1.00 20.00    +0.028 H 
ATOM     80 H80  LIG A   1      19.478  28.393  11.435  1.00 20.00    +0.028 H 
ATOM     81 H81  LIG A   1      21.083  29.617  10.132  1.00 20.00    +0.028 H 
ATOM     82 H82  LIG A   1      20.475  28.251   9.209  1.00 20.00    +0.028 H 
ATOM     83 H83  LIG A   1      23.163  28.194  10.693  1.00 20.00    +0.043 H 
ATOM     84 H84  LIG A   1      22.562  27.002   9.522  1.00 20.00    +0.043 H 
ATOM     85 H85  LIG A   1      24.073  28.509   8.538  1.00 20.00    +0.118 HD
ATOM     86 H86  LIG A   1      23.184  29.810   8.966  1.00 20.00    +0.118 HD
ATOM     87 H87  LIG A   1      22.031  20.934  13.510  1.00 20.00    +0.064 H 
ATOM     88 H88  LIG A   1      21.774  18.660  12.715  1.00 20.00    +0.063 H 
ATOM     89 H89  LIG A   1      21.446  14.626   7.995  1.00 20.00    +0.050 H 
ATOM     90 H90  LIG A   1      22.916  15.384   8.552  1.00 20.00    +0.050 H 
ATOM     91 H91  LIG A   1      22.714  14.410  10.696  1.00 20.00    +0.029 H 
ATOM     92 H92  LIG A   1      22.305  13.163   9.558  1.00 20.00    +0.029 H 
ATOM     93 H93  LIG A   1      21.010  13.030  11.559  1.00 20.00    +0.028 H 
ATOM     94 H94  LIG A   1      20.394  14.632  11.430  1.00 20.00    +0.028 H 
ATOM     95 H95  LIG A   1      19.785  12.266   9.575  1.00 20.00    +0.047 H 
ATOM     96 H96  LIG A   1      18.105  11.620  12.552  1.00 20.00    +0.296 HD
ATOM     97 H97  LIG A   1      21.089  15.690   6.457  1.00 20.00    +0.057 H 
ATOM     98 H98  LIG A   1      22.375  18.269   6.012  1.00 20.00    +0.119 HD
ATOM     99 H99  LIG A   1      23.114  17.038   6.765  1.00 20.00    +0.119 HD
ATOM    100 H100 LIG A   1      18.526  14.964   6.767  1.00 20.00    +0.024 H 
ATOM    101 H101 LIG A   1      17.634  16.141   7.738  1.00 20.00    +0.024 H 
ATOM    102 H102 LIG A   1      19.267  16.521   7.147  1.00 20.00    +0.024 H 
ATOM    103 H103 LIG A   1      18.557  14.294   9.137  1.00 20.00    +0.038 H 
ATOM    104 H104 LIG A   1      20.193  14.645   8.592  1.00 20.00    +0.038 H 
ATOM    105 H105 LIG A   1      19.955  18.898  10.773  1.00 20.00    +0.055 H 
ATOM    106 H106 LIG A   1      21.588  17.762  12.057  1.00 20.00    +0.119 HD
ATOM    107 H107 LIG A   1      22.770  18.050  10.970  1.00 20.00    +0.119 HD
ATOM    108 H108 LIG A   1      22.406  19.599   9.090  1.00 20.00    +0.029 H 
ATOM    109 H109 LIG A   1      20.821  19.513   8.355  1.00 20.00    +0.029 H 
ATOM    110 H110 LIG A   1      21.329  21.796   8.947  1.00 20.00    +0.029 H 
ATOM    111 H111 LIG A   1      19.930  21.229   9.834  1.00 20.00    +0.029 H 
ATOM    112 H112 LIG A   1      22.751  21.323  11.028  1.00 20.00    +0.049 H 
ATOM    113 H113 LIG A   1      21.257  21.008  11.919  1.00 20.00    +0.049 H 
ATOM    114 H114 LIG A   1      22.021  23.534  10.566  1.00 20.00    +0.163 HD
ATOM    115 H115 LIG A   1      18.565  23.541  12.241  1.00 20.00    +0.191 HD
ATOM    116 H116 LIG A   1      19.679  25.343  12.141  1.00 20.00    +0.159 HD
ATOM    117 H117 LIG A   1      21.324  25.227  11.917  1.00 20.00    +0.159 HD
ENDROOT
TORSDOF 0
                                                                                                                        
ENDMDL
MODEL 9
REMARK VINA RESULT:   -11.340      6.638     10.181
REMARK INTER + INTRA:         -11.340
REMARK INTER:                 -11.340
REMARK INTRA:                   0.000
REMARK UNBOUND:                 0.000
ROOT
ATOM      1 C1   LIG A   1      17.060  11.753  11.262  1.00 20.00    -0.060 C 
ATOM      2 C2   LIG A   1      17.888  12.814  10.510  1.00 20.00    -0.016 C 
ATOM      3 C3   LIG A   1      19.279  12.191  10.144  1.00 20.00    -0.023 C 
ATOM      4 C4   LIG A   1      19.471  11.894   8.679  1.00 20.00    -0.044 A 
ATOM      5 C5   LIG A   1      18.771  10.859   8.056  1.00 20.00    -0.058 A 
ATOM      6 C6   LIG A   1      18.627  10.863   6.670  1.00 20.00    -0.054 A 
ATOM      7 C7   LIG A   1      19.143  11.921   5.899  1.00 20.00    +0.009 A 
ATOM      8 C8   LIG A   1      19.976  12.867   6.524  1.00 20.00    +0.130 A 
ATOM      9 C9   LIG A   1      20.194  12.804   7.900  1.00 20.00    -0.016 A 
ATOM     10 O10  LIG A   1      20.463  13.910   5.765  1.00 20.00    -0.464 OA
ATOM     11 C11  LIG A   1      20.591  15.156   6.344  1.00 20.00    +0.104 C 
ATOM     12 C12  LIG A   1      19.619  16.027   6.689  1.00 20.00    +0.082 C 
ATOM     13 C13  LIG A   1      20.018  17.374   7.154  1.00 20.00    -0.010 A 
ATOM     14 C14  LIG A   1      20.844  17.527   8.274  1.00 20.00    -0.052 A 
ATOM     15 C15  LIG A   1      21.229  18.801   8.709  1.00 20.00    -0.038 A 
ATOM     16 C16  LIG A   1      20.818  19.959   8.036  1.00 20.00    +0.034 A 
ATOM     17 N17  LIG A   1      21.185  21.198   8.571  1.00 20.00    -0.385 NA
ATOM     18 C18  LIG A   1      20.947  22.425   7.815  1.00 20.00    +0.016 C 
ATOM     19 C19  LIG A   1      21.461  23.646   8.582  1.00 20.00    -0.023 C 
ATOM     20 C20  LIG A   1      20.648  23.986   9.841  1.00 20.00    -0.003 C 
ATOM     21 N21  LIG A   1      20.661  22.967  10.893  1.00 20.00    -0.317 NA
ATOM     22 C22  LIG A   1      21.925  22.859  11.622  1.00 20.00    -0.005 C 
ATOM     23 C23  LIG A   1      22.199  24.000  12.609  1.00 20.00    -0.039 C 
ATOM     24 C24  LIG A   1      21.374  23.964  13.902  1.00 20.00    -0.040 C 
ATOM     25 C25  LIG A   1      19.864  24.075  13.697  1.00 20.00    -0.008 C 
ATOM     26 N26  LIG A   1      19.200  24.275  14.986  1.00 20.00    -0.330 NA
ATOM     27 C27  LIG A   1      19.957  19.800   6.947  1.00 20.00    -0.038 A 
ATOM     28 C28  LIG A   1      19.575  18.528   6.500  1.00 20.00    -0.052 A 
ATOM     29 C29  LIG A   1      18.167  15.702   6.465  1.00 20.00    +0.264 C 
ATOM     30 O30  LIG A   1      17.488  16.394   5.706  1.00 20.00    -0.268 OA
ATOM     31 N31  LIG A   1      17.658  14.593   7.131  1.00 20.00    -0.277 NA
ATOM     32 C32  LIG A   1      16.613  13.832   6.436  1.00 20.00    +0.029 C 
ATOM     33 C33  LIG A   1      16.651  13.709   4.896  1.00 20.00    -0.034 C 
ATOM     34 C34  LIG A   1      17.966  13.398   4.152  1.00 20.00    -0.034 C 
ATOM     35 C35  LIG A   1      18.684  12.058   4.455  1.00 20.00    +0.085 C 
ATOM     36 C36  LIG A   1      19.829  11.808   3.476  1.00 20.00    +0.311 C 
ATOM     37 O37  LIG A   1      20.978  11.485   3.731  1.00 20.00    -0.252 OA
ATOM     38 O38  LIG A   1      19.442  11.900   2.185  1.00 20.00    -0.481 OA
ATOM     39 C39  LIG A   1      17.823  14.523   8.527  1.00 20.00    +0.246 C 
ATOM     40 O40  LIG A   1      18.522  15.320   9.164  1.00 20.00    -0.273 OA
ATOM     41 C41  LIG A   1      17.051  13.430   9.332  1.00 20.00    +0.088 C 
ATOM     42 N42  LIG A   1      15.825  14.075   9.869  1.00 20.00    -0.320 NA
ATOM     43 C43  LIG A   1      19.309  12.210   8.088  1.00 20.00    -0.056 C 
ATOM     44 C44  LIG A   1      19.004  12.672   6.673  1.00 20.00    -0.002 C 
ATOM     45 S45  LIG A   1      19.651  14.342   6.365  1.00 20.00    -0.087 SA
ATOM     46 C46  LIG A   1      18.483  15.303   7.276  1.00 20.00    +0.205 C 
ATOM     47 O47  LIG A   1      17.382  14.860   7.590  1.00 20.00    -0.285 OA
ATOM     48 C48  LIG A   1      18.921  16.758   7.536  1.00 20.00    +0.074 C 
ATOM     49 N49  LIG A   1      18.297  17.643   6.528  1.00 20.00    -0.321 NA
ATOM     50 C50  LIG A   1      18.508  17.181   8.954  1.00 20.00    -0.028 C 
ATOM     51 C51  LIG A   1      19.328  18.337   9.534  1.00 20.00    -0.034 C 
ATOM     52 C52  LIG A   1      19.266  19.635   8.726  1.00 20.00    +0.018 C 
ATOM     53 N53  LIG A   1      19.859  20.733   9.482  1.00 20.00    -0.357 NA
ATOM     54 C54  LIG A   1      21.198  20.864   9.621  1.00 20.00    +0.185 C 
ATOM     55 N55  LIG A   1      22.084  20.157   9.022  1.00 20.00    -0.270 NA
ATOM     56 N56  LIG A   1      21.505  21.861  10.476  1.00 20.00    -0.370 NA
ATOM     57 H57  LIG A   1      16.132  12.173  11.663  1.00 20.00    +0.023 H 
ATOM     58 H58  LIG A   1      16.798  10.917  10.606  1.00 20.00    +0.023 H 
ATOM     59 H59  LIG A   1      17.621  11.356  12.114  1.00 20.00    +0.023 H 
ATOM     60 H60  LIG A   1      18.094  13.612  11.239  1.00 20.00    +0.032 H 
ATOM     61 H61  LIG A   1      20.057  12.895  10.472  1.00 20.00    +0.032 H 
ATOM     62 H62  LIG A   1      19.472  11.277  10.720  1.00 20.00    +0.032 H 
ATOM     63 H63  LIG A   1      18.252  10.109   8.647  1.00 20.00    +0.063 H 
ATOM     64 H64  LIG A   1      18.017  10.087   6.208  1.00 20.00    +0.063 H 
ATOM     65 H65  LIG A   1      20.787  13.571   8.394  1.00 20.00    +0.067 H 
ATOM     66 H66  LIG A   1      21.648  15.401   6.402  1.00 20.00    +0.105 H 
ATOM     67 H67  LIG A   1      21.173  16.658   8.840  1.00 20.00    +0.063 H 
ATOM     68 H68  LIG A   1      21.849  18.881   9.600  1.00 20.00    +0.064 H 
ATOM     69 H69  LIG A   1      22.115  21.155   8.982  1.00 20.00    +0.160 HD
ATOM     70 H70  LIG A   1      21.478  22.370   6.857  1.00 20.00    +0.049 H 
ATOM     71 H71  LIG A   1      19.880  22.556   7.609  1.00 20.00    +0.049 H 
ATOM     72 H72  LIG A   1      21.402  24.512   7.909  1.00 20.00    +0.030 H 
ATOM     73 H73  LIG A   1      22.522  23.522   8.826  1.00 20.00    +0.030 H 
ATOM     74 H74  LIG A   1      19.601  24.130   9.543  1.00 20.00    +0.043 H 
ATOM     75 H75  LIG A   1      20.974  24.955  10.233  1.00 20.00    +0.043 H 
ATOM     76 H76  LIG A   1      20.470  22.062  10.440  1.00 20.00    +0.122 HD
ATOM     77 H77  LIG A   1      21.906  21.917  12.184  1.00 20.00    +0.043 H 
ATOM     78 H78  LIG A   1      22.765  22.771  10.923  1.00 20.00    +0.043 H 
ATOM     79 H79  LIG A   1      22.080  24.977  12.125  1.00 20.00    +0.028 H 
ATOM     80 H80  LIG A   1      23.258  23.940  12.897  1.00 20.00    +0.028 H 
ATOM     81 H81  LIG A   1      21.720  24.792  14.534  1.00 20.00    +0.028 H 
ATOM     82 H82  LIG A   1      21.602  23.041  14.452  1.00 20.00    +0.028 H 
ATOM     83 H83  LIG A   1      19.624  24.913  13.033  1.00 20.00    +0.043 H 
ATOM     84 H84  LIG A   1      19.467  23.158  13.250  1.00 20.00    +0.043 H 
ATOM     85 H85  LIG A   1      18.195  24.351  14.825  1.00 20.00    +0.118 HD
ATOM     86 H86  LIG A   1      19.495  25.169  15.380  1.00 20.00    +0.118 HD
ATOM     87 H87  LIG A   1      19.563  20.659   6.412  1.00 20.00    +0.064 H 
ATOM     88 H88  LIG A   1      18.918  18.458   5.635  1.00 20.00    +0.063 H 
ATOM     89 H89  LIG A   1      16.598  12.810   6.813  1.00 20.00    +0.050 H 
ATOM     90 H90  LIG A   1      15.651  14.275   6.727  1.00 20.00    +0.050 H 
ATOM     91 H91  LIG A   1      16.254  14.640   4.471  1.00 20.00    +0.029 H 
ATOM     92 H92  LIG A   1      15.918  12.942   4.613  1.00 20.00    +0.029 H 
ATOM     93 H93  LIG A   1      17.697  13.395   3.086  1.00 20.00    +0.028 H 
ATOM     94 H94  LIG A   1      18.653  14.243   4.238  1.00 20.00    +0.028 H 
ATOM     95 H95  LIG A   1      17.963  11.255   4.256  1.00 20.00    +0.047 H 
ATOM     96 H96  LIG A   1      20.263  11.701   1.684  1.00 20.00    +0.296 HD
ATOM     97 H97  LIG A   1      16.720  12.608   8.702  1.00 20.00    +0.057 H 
ATOM     98 H98  LIG A   1      16.119  14.785  10.546  1.00 20.00    +0.119 HD
ATOM     99 H99  LIG A   1      15.353  14.598   9.129  1.00 20.00    +0.119 HD
ATOM    100 H100 LIG A   1      18.945  11.187   8.228  1.00 20.00    +0.024 H 
ATOM    101 H101 LIG A   1      20.387  12.207   8.284  1.00 20.00    +0.024 H 
ATOM    102 H102 LIG A   1      18.821  12.839   8.840  1.00 20.00    +0.024 H 
ATOM    103 H103 LIG A   1      19.492  11.994   5.966  1.00 20.00    +0.038 H 
ATOM    104 H104 LIG A   1      17.931  12.631   6.468  1.00 20.00    +0.038 H 
ATOM    105 H105 LIG A   1      20.011  16.828   7.448  1.00 20.00    +0.055 H 
ATOM    106 H106 LIG A   1      18.629  17.366   5.601  1.00 20.00    +0.119 HD
ATOM    107 H107 LIG A   1      17.289  17.476   6.524  1.00 20.00    +0.119 HD
ATOM    108 H108 LIG A   1      17.442  17.441   8.981  1.00 20.00    +0.029 H 
ATOM    109 H109 LIG A   1      18.619  16.325   9.635  1.00 20.00    +0.029 H 
ATOM    110 H110 LIG A   1      18.975  18.526  10.556  1.00 20.00    +0.029 H 
ATOM    111 H111 LIG A   1      20.372  18.015   9.633  1.00 20.00    +0.029 H 
ATOM    112 H112 LIG A   1      18.221  19.896   8.522  1.00 20.00    +0.049 H 
ATOM    113 H113 LIG A   1      19.775  19.531   7.762  1.00 20.00    +0.049 H 
ATOM    114 H114 LIG A   1      19.342  20.962  10.322  1.00 20.00    +0.163 HD
ATOM    115 H115 LIG A   1      23.014  20.448   9.322  1.00 20.00    +0.191 HD
ATOM    116 H116 LIG A   1      22.466  22.173  10.428  1.00 20.00    +0.159 HD
ATOM    117 H117 LIG A   1      20.871  22.646  10.389  1.00 20.00    +0.159 HD
ENDROOT
TORSDOF 0
                                                                                                                        
ENDMDL
