ROOT
ATOM      1 C1   LIG A   1       4.250  -0.839  -1.445  1.00 20.00    -0.060 C 
ATOM      2 C2   LIG A   1       3.229   0.220  -0.980  1.00 20.00    -0.016 C 
ATOM      3 C3   LIG A   1       2.301   0.594  -2.181  1.00 20.00    -0.023 C 
ATOM      4 C4   LIG A   1       0.966  -0.099  -2.176  1.00 20.00    -0.047 A 
ATOM      5 C5   LIG A   1       0.852  -1.458  -2.443  1.00 20.00    -0.059 A 
ATOM      6 C6   LIG A   1      -0.280  -2.143  -2.016  1.00 20.00    -0.057 A 
ATOM      7 C7   LIG A   1      -1.280  -1.484  -1.266  1.00 20.00    -0.023 A 
ATOM      8 C8   LIG A   1      -1.256  -0.075  -1.192  1.00 20.00    +0.027 A 
ATOM      9 C9   LIG A   1      -0.148   0.605  -1.706  1.00 20.00    -0.048 A 
ATOM     10 C10  LIG A   1      -2.277   0.727  -0.451  1.00 20.00    +0.194 C 
ATOM     11 O11  LIG A   1      -3.432   0.345  -0.321  1.00 20.00    -0.289 OA
ATOM     12 C12  LIG A   1      -1.923   2.038   0.128  1.00 20.00    +0.035 A 
ATOM     13 C13  LIG A   1      -2.448   3.178  -0.496  1.00 20.00    -0.050 A 
ATOM     14 C14  LIG A   1      -2.173   4.444   0.022  1.00 20.00    -0.061 A 
ATOM     15 C15  LIG A   1      -1.397   4.575   1.174  1.00 20.00    -0.061 A 
ATOM     16 C16  LIG A   1      -0.896   3.439   1.815  1.00 20.00    -0.049 A 
ATOM     17 C17  LIG A   1      -1.140   2.167   1.282  1.00 20.00    +0.051 A 
ATOM     18 C18  LIG A   1      -0.700   0.995   2.065  1.00 20.00    +0.261 C 
ATOM     19 O19  LIG A   1      -1.291   0.807   3.129  1.00 20.00    -0.269 OA
ATOM     20 N20  LIG A   1       0.347   0.174   1.599  1.00 20.00    -0.277 NA
ATOM     21 C21  LIG A   1       0.385  -1.158   2.235  1.00 20.00    +0.029 C 
ATOM     22 C22  LIG A   1      -0.291  -2.298   1.449  1.00 20.00    -0.034 C 
ATOM     23 C23  LIG A   1      -1.795  -2.127   1.127  1.00 20.00    -0.034 C 
ATOM     24 C24  LIG A   1      -2.145  -2.372  -0.370  1.00 20.00    +0.082 C 
ATOM     25 C25  LIG A   1      -3.623  -2.332  -0.723  1.00 20.00    +0.310 C 
ATOM     26 O26  LIG A   1      -4.090  -2.242  -1.850  1.00 20.00    -0.252 OA
ATOM     27 O27  LIG A   1      -4.443  -2.517   0.330  1.00 20.00    -0.481 OA
ATOM     28 C28  LIG A   1       1.428   0.715   0.874  1.00 20.00    +0.246 C 
ATOM     29 O29  LIG A   1       1.550   1.927   0.668  1.00 20.00    -0.273 OA
ATOM     30 C30  LIG A   1       2.547  -0.240   0.364  1.00 20.00    +0.088 C 
ATOM     31 N31  LIG A   1       3.606  -0.294   1.407  1.00 20.00    -0.320 NA
ATOM     32 O32  LIG A   1       1.930  -1.316  -0.156  1.00 20.00    -0.504 OA
ATOM     33 C33  LIG A   1       0.757  -0.622  -0.037  1.00 20.00    +0.157 A 
ATOM     34 C34  LIG A   1      -0.420  -1.234   0.379  1.00 20.00    -0.016 A 
ATOM     35 C35  LIG A   1      -1.585  -0.469   0.480  1.00 20.00    -0.058 A 
ATOM     36 C36  LIG A   1      -1.565   0.894   0.166  1.00 20.00    -0.058 A 
ATOM     37 C37  LIG A   1      -0.380   1.501  -0.251  1.00 20.00    -0.016 A 
ATOM     38 C38  LIG A   1       0.773   0.736  -0.349  1.00 20.00    +0.157 A 
ATOM     39 O39  LIG A   1       1.934   1.328  -0.757  1.00 20.00    -0.504 OA
ATOM     40 H40  LIG A   1       5.035  -0.995  -0.698  1.00 20.00    +0.023 H 
ATOM     41 H41  LIG A   1       4.748  -0.523  -2.367  1.00 20.00    +0.023 H 
ATOM     42 H42  LIG A   1       3.768  -1.804  -1.631  1.00 20.00    +0.023 H 
ATOM     43 H43  LIG A   1       3.814   1.129  -0.774  1.00 20.00    +0.032 H 
ATOM     44 H44  LIG A   1       2.139   1.681  -2.157  1.00 20.00    +0.032 H 
ATOM     45 H45  LIG A   1       2.798   0.409  -3.141  1.00 20.00    +0.032 H 
ATOM     46 H46  LIG A   1       1.679  -2.012  -2.881  1.00 20.00    +0.063 H 
ATOM     47 H47  LIG A   1      -0.303  -3.225  -2.138  1.00 20.00    +0.063 H 
ATOM     48 H48  LIG A   1      -0.064   1.687  -1.607  1.00 20.00    +0.063 H 
ATOM     49 H49  LIG A   1      -3.080   3.079  -1.377  1.00 20.00    +0.063 H 
ATOM     50 H50  LIG A   1      -2.578   5.330  -0.463  1.00 20.00    +0.062 H 
ATOM     51 H51  LIG A   1      -1.198   5.561   1.587  1.00 20.00    +0.062 H 
ATOM     52 H52  LIG A   1      -0.321   3.546   2.732  1.00 20.00    +0.063 H 
ATOM     53 H53  LIG A   1       1.422  -1.446   2.421  1.00 20.00    +0.050 H 
ATOM     54 H54  LIG A   1      -0.076  -1.114   3.228  1.00 20.00    +0.050 H 
ATOM     55 H55  LIG A   1      -0.189  -3.208   2.057  1.00 20.00    +0.029 H 
ATOM     56 H56  LIG A   1       0.297  -2.504   0.553  1.00 20.00    +0.029 H 
ATOM     57 H57  LIG A   1      -2.168  -1.157   1.460  1.00 20.00    +0.028 H 
ATOM     58 H58  LIG A   1      -2.348  -2.858   1.734  1.00 20.00    +0.028 H 
ATOM     59 H59  LIG A   1      -1.877  -3.422  -0.563  1.00 20.00    +0.047 H 
ATOM     60 H60  LIG A   1      -5.332  -2.359  -0.051  1.00 20.00    +0.296 HD
ATOM     61 H61  LIG A   1       2.145  -1.246   0.227  1.00 20.00    +0.057 H 
ATOM     62 H62  LIG A   1       3.204  -0.447   2.330  1.00 20.00    +0.119 HD
ATOM     63 H63  LIG A   1       4.049   0.627   1.462  1.00 20.00    +0.119 HD
ATOM     64 H64  LIG A   1       1.758  -2.240   0.094  1.00 20.00    +0.293 HD
ATOM     65 H65  LIG A   1      -0.453  -2.290   0.626  1.00 20.00    +0.066 H 
ATOM     66 H66  LIG A   1      -2.513  -0.934   0.804  1.00 20.00    +0.062 H 
ATOM     67 H67  LIG A   1      -2.475   1.484   0.246  1.00 20.00    +0.062 H 
ATOM     68 H68  LIG A   1      -0.355   2.558  -0.497  1.00 20.00    +0.066 H 
ATOM     69 H69  LIG A   1       2.592   0.604  -0.747  1.00 20.00    +0.293 HD
ENDROOT
TORSDOF 0
