ROOT
ATOM      1 N1   LIG A   1     -13.459   1.516  -2.204  1.00 20.00    -0.330 NA
ATOM      2 C2   LIG A   1     -12.122   1.837  -2.691  1.00 20.00    -0.008 C 
ATOM      3 C3   LIG A   1     -11.141   0.705  -2.386  1.00 20.00    -0.040 C 
ATOM      4 C4   LIG A   1      -9.738   1.032  -2.909  1.00 20.00    -0.039 C 
ATOM      5 C5   LIG A   1      -8.739  -0.106  -2.683  1.00 20.00    -0.005 C 
ATOM      6 N6   LIG A   1      -8.527  -0.342  -1.255  1.00 20.00    -0.317 NA
ATOM      7 C7   LIG A   1      -7.609  -1.462  -1.031  1.00 20.00    -0.003 C 
ATOM      8 C8   LIG A   1      -7.410  -1.668   0.472  1.00 20.00    -0.023 C 
ATOM      9 C9   LIG A   1      -6.571  -2.908   0.787  1.00 20.00    +0.016 C 
ATOM     10 N10  LIG A   1      -5.202  -2.808   0.301  1.00 20.00    -0.385 NA
ATOM     11 C11  LIG A   1      -4.241  -1.987   0.876  1.00 20.00    +0.034 A 
ATOM     12 C12  LIG A   1      -4.359  -1.416   2.145  1.00 20.00    -0.038 A 
ATOM     13 C13  LIG A   1      -3.321  -0.655   2.705  1.00 20.00    -0.049 A 
ATOM     14 C14  LIG A   1      -2.116  -0.463   2.021  1.00 20.00    +0.017 A 
ATOM     15 C15  LIG A   1      -1.032   0.314   2.616  1.00 20.00    +0.134 A 
ATOM     16 C16  LIG A   1      -0.904   1.089   3.752  1.00 20.00    -0.015 A 
ATOM     17 C17  LIG A   1       0.433   1.562   3.775  1.00 20.00    -0.015 A 
ATOM     18 C18  LIG A   1       1.055   1.054   2.653  1.00 20.00    +0.134 A 
ATOM     19 C19  LIG A   1       2.405   1.139   2.102  1.00 20.00    +0.017 A 
ATOM     20 C20  LIG A   1       3.450   1.698   2.845  1.00 20.00    -0.049 A 
ATOM     21 C21  LIG A   1       4.752   1.770   2.325  1.00 20.00    -0.038 A 
ATOM     22 C22  LIG A   1       5.048   1.316   1.037  1.00 20.00    +0.034 A 
ATOM     23 N23  LIG A   1       6.326   1.291   0.490  1.00 20.00    -0.385 NA
ATOM     24 C24  LIG A   1       7.447   2.036   1.056  1.00 20.00    +0.016 C 
ATOM     25 C25  LIG A   1       8.237   1.173   2.043  1.00 20.00    -0.023 C 
ATOM     26 C26  LIG A   1       8.966   0.004   1.372  1.00 20.00    -0.003 C 
ATOM     27 N27  LIG A   1      10.069   0.486   0.529  1.00 20.00    -0.317 NA
ATOM     28 C28  LIG A   1      10.690  -0.594  -0.241  1.00 20.00    -0.005 C 
ATOM     29 C29  LIG A   1       9.851  -1.081  -1.430  1.00 20.00    -0.039 C 
ATOM     30 C30  LIG A   1       9.535   0.034  -2.434  1.00 20.00    -0.040 C 
ATOM     31 C31  LIG A   1       8.652  -0.423  -3.598  1.00 20.00    -0.008 C 
ATOM     32 N32  LIG A   1       9.288  -1.427  -4.443  1.00 20.00    -0.330 NA
ATOM     33 C33  LIG A   1       4.003   0.732   0.310  1.00 20.00    -0.038 A 
ATOM     34 C34  LIG A   1       2.703   0.653   0.825  1.00 20.00    -0.049 A 
ATOM     35 O35  LIG A   1       0.159   0.302   1.946  1.00 20.00    -0.456 OA
ATOM     36 C36  LIG A   1      -1.981  -1.057   0.762  1.00 20.00    -0.049 A 
ATOM     37 C37  LIG A   1      -3.023  -1.812   0.207  1.00 20.00    -0.038 A 
ATOM     38 N38  LIG A   1       1.876   0.579   0.710  1.00 20.00    -0.330 NA
ATOM     39 C39  LIG A   1       1.044   0.559  -0.492  1.00 20.00    -0.007 C 
ATOM     40 C40  LIG A   1       0.106  -0.649  -0.509  1.00 20.00    -0.029 C 
ATOM     41 C41  LIG A   1      -1.044  -0.555   0.495  1.00 20.00    -0.007 C 
ATOM     42 N42  LIG A   1      -2.041   0.433   0.083  1.00 20.00    -0.330 NA
ATOM     43 H43  LIG A   1     -13.768   0.636  -2.618  1.00 20.00    +0.118 HD
ATOM     44 H44  LIG A   1     -13.419   1.346  -1.198  1.00 20.00    +0.118 HD
ATOM     45 H45  LIG A   1     -11.786   2.767  -2.220  1.00 20.00    +0.043 H 
ATOM     46 H46  LIG A   1     -12.173   2.015  -3.770  1.00 20.00    +0.043 H 
ATOM     47 H47  LIG A   1     -11.494  -0.225  -2.849  1.00 20.00    +0.028 H 
ATOM     48 H48  LIG A   1     -11.108   0.535  -1.302  1.00 20.00    +0.028 H 
ATOM     49 H49  LIG A   1      -9.793   1.233  -3.987  1.00 20.00    +0.028 H 
ATOM     50 H50  LIG A   1      -9.370   1.952  -2.436  1.00 20.00    +0.028 H 
ATOM     51 H51  LIG A   1      -7.789   0.160  -3.162  1.00 20.00    +0.043 H 
ATOM     52 H52  LIG A   1      -9.114  -1.016  -3.167  1.00 20.00    +0.043 H 
ATOM     53 H53  LIG A   1      -8.142   0.502  -0.826  1.00 20.00    +0.122 HD
ATOM     54 H54  LIG A   1      -6.646  -1.259  -1.513  1.00 20.00    +0.043 H 
ATOM     55 H55  LIG A   1      -8.027  -2.375  -1.472  1.00 20.00    +0.043 H 
ATOM     56 H56  LIG A   1      -6.954  -0.773   0.911  1.00 20.00    +0.030 H 
ATOM     57 H57  LIG A   1      -8.389  -1.792   0.952  1.00 20.00    +0.030 H 
ATOM     58 H58  LIG A   1      -6.585  -3.111   1.864  1.00 20.00    +0.049 H 
ATOM     59 H59  LIG A   1      -7.033  -3.784   0.316  1.00 20.00    +0.049 H 
ATOM     60 H60  LIG A   1      -5.100  -2.926  -0.703  1.00 20.00    +0.160 HD
ATOM     61 H61  LIG A   1      -5.259  -1.551   2.736  1.00 20.00    +0.064 H 
ATOM     62 H62  LIG A   1      -3.471  -0.230   3.694  1.00 20.00    +0.063 H 
ATOM     63 H63  LIG A   1      -1.676   1.290   4.480  1.00 20.00    +0.066 H 
ATOM     64 H64  LIG A   1       0.884   2.196   4.525  1.00 20.00    +0.066 H 
ATOM     65 H65  LIG A   1       3.277   2.070   3.852  1.00 20.00    +0.063 H 
ATOM     66 H66  LIG A   1       5.527   2.185   2.962  1.00 20.00    +0.064 H 
ATOM     67 H67  LIG A   1       6.324   1.290  -0.527  1.00 20.00    +0.160 HD
ATOM     68 H68  LIG A   1       8.100   2.355   0.235  1.00 20.00    +0.049 H 
ATOM     69 H69  LIG A   1       7.109   2.961   1.537  1.00 20.00    +0.049 H 
ATOM     70 H70  LIG A   1       8.963   1.805   2.570  1.00 20.00    +0.030 H 
ATOM     71 H71  LIG A   1       7.566   0.767   2.808  1.00 20.00    +0.030 H 
ATOM     72 H72  LIG A   1       9.372  -0.652   2.152  1.00 20.00    +0.043 H 
ATOM     73 H73  LIG A   1       8.246  -0.584   0.794  1.00 20.00    +0.043 H 
ATOM     74 H74  LIG A   1      10.777   0.904   1.134  1.00 20.00    +0.122 HD
ATOM     75 H75  LIG A   1      11.646  -0.221  -0.629  1.00 20.00    +0.043 H 
ATOM     76 H76  LIG A   1      10.935  -1.440   0.413  1.00 20.00    +0.043 H 
ATOM     77 H77  LIG A   1       8.920  -1.540  -1.079  1.00 20.00    +0.028 H 
ATOM     78 H78  LIG A   1      10.417  -1.877  -1.929  1.00 20.00    +0.028 H 
ATOM     79 H79  LIG A   1      10.472   0.454  -2.822  1.00 20.00    +0.028 H 
ATOM     80 H80  LIG A   1       9.013   0.853  -1.924  1.00 20.00    +0.028 H 
ATOM     81 H81  LIG A   1       7.703  -0.820  -3.219  1.00 20.00    +0.043 H 
ATOM     82 H82  LIG A   1       8.409   0.446  -4.220  1.00 20.00    +0.043 H 
ATOM     83 H83  LIG A   1      10.207  -1.096  -4.736  1.00 20.00    +0.118 HD
ATOM     84 H84  LIG A   1       9.453  -2.277  -3.906  1.00 20.00    +0.118 HD
ATOM     85 H85  LIG A   1       4.193   0.317  -0.677  1.00 20.00    +0.064 H 
ATOM     86 H86  LIG A   1       1.928   0.192   0.216  1.00 20.00    +0.063 H 
ATOM     87 H87  LIG A   1      -1.058  -0.948   0.198  1.00 20.00    +0.063 H 
ATOM     88 H88  LIG A   1      -2.863  -2.273  -0.764  1.00 20.00    +0.064 H 
ATOM     89 H89  LIG A   1       2.504  -0.223   0.704  1.00 20.00    +0.118 HD
ATOM     90 H90  LIG A   1       2.469   1.408   0.690  1.00 20.00    +0.118 HD
ATOM     91 H91  LIG A   1       0.477   1.494  -0.559  1.00 20.00    +0.043 H 
ATOM     92 H92  LIG A   1       1.702   0.515  -1.367  1.00 20.00    +0.043 H 
ATOM     93 H93  LIG A   1      -0.301  -0.769  -1.522  1.00 20.00    +0.029 H 
ATOM     94 H94  LIG A   1       0.681  -1.561  -0.307  1.00 20.00    +0.029 H 
ATOM     95 H95  LIG A   1      -1.536  -1.531   0.570  1.00 20.00    +0.043 H 
ATOM     96 H96  LIG A   1      -0.671  -0.302   1.493  1.00 20.00    +0.043 H 
ATOM     97 H97  LIG A   1      -2.775   0.478   0.789  1.00 20.00    +0.118 HD
ATOM     98 H98  LIG A   1      -2.491   0.125  -0.778  1.00 20.00    +0.118 HD
ENDROOT
TORSDOF 0
