MODEL 1
REMARK VINA RESULT:   -12.121      0.000      0.000
REMARK INTER + INTRA:         -12.121
REMARK INTER:                 -12.121
REMARK INTRA:                   0.000
REMARK UNBOUND:                 0.000
ROOT
ATOM      1 C1   LIG A   1      22.355  12.202   3.674  1.00 20.00    -0.060 C 
ATOM      2 C2   LIG A   1      22.046  13.660   4.064  1.00 20.00    -0.016 C 
ATOM      3 C3   LIG A   1      20.534  13.903   3.726  1.00 20.00    -0.023 C 
ATOM      4 C4   LIG A   1      19.985  15.188   4.279  1.00 20.00    -0.048 A 
ATOM      5 C5   LIG A   1      19.140  15.156   5.393  1.00 20.00    -0.058 A 
ATOM      6 C6   LIG A   1      19.048  16.273   6.214  1.00 20.00    -0.051 A 
ATOM      7 C7   LIG A   1      19.859  17.380   5.947  1.00 20.00    +0.017 A 
ATOM      8 C8   LIG A   1      20.435  17.513   4.679  1.00 20.00    -0.051 A 
ATOM      9 C9   LIG A   1      20.487  16.412   3.830  1.00 20.00    -0.058 A 
ATOM     10 C10  LIG A   1      20.306  18.251   7.054  1.00 20.00    +0.140 C 
ATOM     11 C11  LIG A   1      21.618  18.419   7.335  1.00 20.00    +0.047 C 
ATOM     12 C12  LIG A   1      22.772  17.561   6.904  1.00 20.00    +0.256 C 
ATOM     13 O13  LIG A   1      23.904  18.041   6.951  1.00 20.00    -0.269 OA
ATOM     14 N14  LIG A   1      22.507  16.194   6.900  1.00 20.00    -0.278 NA
ATOM     15 C15  LIG A   1      22.707  15.504   8.184  1.00 20.00    +0.029 C 
ATOM     16 C16  LIG A   1      22.103  16.171   9.446  1.00 20.00    -0.034 C 
ATOM     17 C17  LIG A   1      20.577  16.048   9.499  1.00 20.00    -0.034 C 
ATOM     18 C18  LIG A   1      19.853  17.016  10.455  1.00 20.00    +0.085 C 
ATOM     19 C19  LIG A   1      18.388  16.614  10.531  1.00 20.00    +0.311 C 
ATOM     20 O20  LIG A   1      17.585  16.558   9.613  1.00 20.00    -0.252 OA
ATOM     21 O21  LIG A   1      18.008  16.283  11.784  1.00 20.00    -0.481 OA
ATOM     22 C22  LIG A   1      19.968  18.526  10.253  1.00 20.00    +0.009 A 
ATOM     23 C23  LIG A   1      20.383  19.285  11.364  1.00 20.00    -0.052 A 
ATOM     24 C24  LIG A   1      20.423  20.686  11.335  1.00 20.00    -0.038 A 
ATOM     25 C25  LIG A   1      20.005  21.403  10.214  1.00 20.00    +0.038 A 
ATOM     26 N26  LIG A   1      20.066  22.788  10.102  1.00 20.00    -0.385 NA
ATOM     27 C27  LIG A   1      20.263  23.672  11.243  1.00 20.00    +0.016 C 
ATOM     28 C28  LIG A   1      18.983  23.829  12.060  1.00 20.00    -0.023 C 
ATOM     29 C29  LIG A   1      19.228  24.715  13.286  1.00 20.00    -0.003 C 
ATOM     30 N30  LIG A   1      17.965  24.967  13.984  1.00 20.00    -0.317 NA
ATOM     31 C31  LIG A   1      18.164  25.692  15.241  1.00 20.00    -0.005 C 
ATOM     32 C32  LIG A   1      17.222  26.902  15.317  1.00 20.00    -0.039 C 
ATOM     33 C33  LIG A   1      17.468  27.978  14.249  1.00 20.00    -0.040 C 
ATOM     34 C34  LIG A   1      18.849  28.634  14.289  1.00 20.00    -0.008 C 
ATOM     35 N35  LIG A   1      19.079  29.401  15.507  1.00 20.00    -0.330 NA
ATOM     36 C36  LIG A   1      19.629  20.658   9.091  1.00 20.00    +0.004 A 
ATOM     37 C37  LIG A   1      19.623  19.252   9.098  1.00 20.00    +0.133 A 
ATOM     38 O38  LIG A   1      19.273  18.668   7.898  1.00 20.00    -0.456 OA
ATOM     39 C39  LIG A   1      22.820  15.551   5.697  1.00 20.00    +0.246 C 
ATOM     40 O40  LIG A   1      23.342  16.148   4.749  1.00 20.00    -0.273 OA
ATOM     41 C41  LIG A   1      22.460  14.020   5.553  1.00 20.00    +0.088 C 
ATOM     42 N42  LIG A   1      23.656  13.252   5.975  1.00 20.00    -0.320 NA
ATOM     43 O43  LIG A   1      20.518  17.485   7.983  1.00 20.00    -0.504 OA
ATOM     44 C44  LIG A   1      20.296  18.687   8.595  1.00 20.00    +0.161 A 
ATOM     45 C45  LIG A   1      20.119  19.862   7.869  1.00 20.00    -0.016 A 
ATOM     46 C46  LIG A   1      19.892  21.064   8.553  1.00 20.00    -0.055 A 
ATOM     47 C47  LIG A   1      19.842  21.086   9.952  1.00 20.00    -0.016 A 
ATOM     48 C48  LIG A   1      20.024  19.904  10.657  1.00 20.00    +0.161 A 
ATOM     49 O49  LIG A   1      19.978  19.923  12.021  1.00 20.00    -0.504 OA
ATOM     50 C50  LIG A   1      20.250  18.711   9.984  1.00 20.00    +0.200 A 
ATOM     51 O51  LIG A   1      20.426  17.560  10.707  1.00 20.00    -0.502 OA
ATOM     52 H52  LIG A   1      23.433  12.005   3.682  1.00 20.00    +0.023 H 
ATOM     53 H53  LIG A   1      22.003  11.987   2.660  1.00 20.00    +0.023 H 
ATOM     54 H54  LIG A   1      21.866  11.496   4.354  1.00 20.00    +0.023 H 
ATOM     55 H55  LIG A   1      22.633  14.289   3.381  1.00 20.00    +0.032 H 
ATOM     56 H56  LIG A   1      19.940  13.063   4.111  1.00 20.00    +0.032 H 
ATOM     57 H57  LIG A   1      20.391  13.895   2.638  1.00 20.00    +0.032 H 
ATOM     58 H58  LIG A   1      18.659  14.232   5.702  1.00 20.00    +0.063 H 
ATOM     59 H59  LIG A   1      18.475  16.201   7.133  1.00 20.00    +0.063 H 
ATOM     60 H60  LIG A   1      21.006  18.401   4.416  1.00 20.00    +0.063 H 
ATOM     61 H61  LIG A   1      21.101  16.469   2.934  1.00 20.00    +0.063 H 
ATOM     62 H62  LIG A   1      21.944  19.119   8.099  1.00 20.00    +0.072 H 
ATOM     63 H63  LIG A   1      23.791  15.425   8.327  1.00 20.00    +0.050 H 
ATOM     64 H64  LIG A   1      22.320  14.483   8.120  1.00 20.00    +0.050 H 
ATOM     65 H65  LIG A   1      22.435  17.209   9.538  1.00 20.00    +0.029 H 
ATOM     66 H66  LIG A   1      22.511  15.657  10.327  1.00 20.00    +0.029 H 
ATOM     67 H67  LIG A   1      20.157  16.124   8.506  1.00 20.00    +0.028 H 
ATOM     68 H68  LIG A   1      20.342  15.017   9.809  1.00 20.00    +0.028 H 
ATOM     69 H69  LIG A   1      20.278  16.787  11.442  1.00 20.00    +0.047 H 
ATOM     70 H70  LIG A   1      17.048  16.097  11.699  1.00 20.00    +0.296 HD
ATOM     71 H71  LIG A   1      20.676  18.792  12.292  1.00 20.00    +0.063 H 
ATOM     72 H72  LIG A   1      20.774  21.197  12.226  1.00 20.00    +0.064 H 
ATOM     73 H73  LIG A   1      19.417  23.161   9.413  1.00 20.00    +0.160 HD
ATOM     74 H74  LIG A   1      20.554  24.655  10.854  1.00 20.00    +0.049 H 
ATOM     75 H75  LIG A   1      21.100  23.339  11.865  1.00 20.00    +0.049 H 
ATOM     76 H76  LIG A   1      18.615  22.848  12.383  1.00 20.00    +0.030 H 
ATOM     77 H77  LIG A   1      18.195  24.265  11.433  1.00 20.00    +0.030 H 
ATOM     78 H78  LIG A   1      19.943  24.215  13.953  1.00 20.00    +0.043 H 
ATOM     79 H79  LIG A   1      19.666  25.672  12.970  1.00 20.00    +0.043 H 
ATOM     80 H80  LIG A   1      17.488  24.076  14.167  1.00 20.00    +0.122 HD
ATOM     81 H81  LIG A   1      19.201  26.015  15.375  1.00 20.00    +0.043 H 
ATOM     82 H82  LIG A   1      17.944  25.013  16.075  1.00 20.00    +0.043 H 
ATOM     83 H83  LIG A   1      17.293  27.346  16.319  1.00 20.00    +0.028 H 
ATOM     84 H84  LIG A   1      16.183  26.556  15.220  1.00 20.00    +0.028 H 
ATOM     85 H85  LIG A   1      16.699  28.755  14.350  1.00 20.00    +0.028 H 
ATOM     86 H86  LIG A   1      17.324  27.541  13.250  1.00 20.00    +0.028 H 
ATOM     87 H87  LIG A   1      18.939  29.314  13.434  1.00 20.00    +0.043 H 
ATOM     88 H88  LIG A   1      19.647  27.891  14.178  1.00 20.00    +0.043 H 
ATOM     89 H89  LIG A   1      18.982  28.806  16.327  1.00 20.00    +0.118 HD
ATOM     90 H90  LIG A   1      18.364  30.125  15.590  1.00 20.00    +0.118 HD
ATOM     91 H91  LIG A   1      19.352  21.171   8.172  1.00 20.00    +0.068 H 
ATOM     92 H92  LIG A   1      21.631  13.770   6.217  1.00 20.00    +0.057 H 
ATOM     93 H93  LIG A   1      23.984  13.543   6.889  1.00 20.00    +0.119 HD
ATOM     94 H94  LIG A   1      23.424  12.263   6.046  1.00 20.00    +0.119 HD
ATOM     95 H95  LIG A   1      20.489  17.626   7.020  1.00 20.00    +0.293 HD
ATOM     96 H96  LIG A   1      20.155  19.868   6.785  1.00 20.00    +0.066 H 
ATOM     97 H97  LIG A   1      19.753  21.987   7.996  1.00 20.00    +0.063 H 
ATOM     98 H98  LIG A   1      19.662  22.013  10.487  1.00 20.00    +0.066 H 
ATOM     99 H99  LIG A   1      20.166  19.000  12.281  1.00 20.00    +0.293 HD
ATOM    100 H100 LIG A   1      20.539  16.867  10.025  1.00 20.00    +0.293 HD
ENDROOT
TORSDOF 0
                                                                                                       
ENDMDL
MODEL 2
REMARK VINA RESULT:   -12.026      3.962     13.199
REMARK INTER + INTRA:         -12.026
REMARK INTER:                 -12.026
REMARK INTRA:                   0.000
REMARK UNBOUND:                 0.000
ROOT
ATOM      1 C1   LIG A   1      19.199  32.898  18.391  1.00 20.00    -0.060 C 
ATOM      2 C2   LIG A   1      19.004  31.446  17.916  1.00 20.00    -0.016 C 
ATOM      3 C3   LIG A   1      17.519  31.333  17.423  1.00 20.00    -0.023 C 
ATOM      4 C4   LIG A   1      17.219  30.061  16.681  1.00 20.00    -0.048 A 
ATOM      5 C5   LIG A   1      17.076  30.089  15.290  1.00 20.00    -0.058 A 
ATOM      6 C6   LIG A   1      17.319  28.936  14.555  1.00 20.00    -0.051 A 
ATOM      7 C7   LIG A   1      17.771  27.790  15.216  1.00 20.00    +0.017 A 
ATOM      8 C8   LIG A   1      17.596  27.690  16.601  1.00 20.00    -0.051 A 
ATOM      9 C9   LIG A   1      17.303  28.832  17.340  1.00 20.00    -0.058 A 
ATOM     10 C10  LIG A   1      18.643  26.827  14.513  1.00 20.00    +0.140 C 
ATOM     11 C11  LIG A   1      19.890  26.549  14.955  1.00 20.00    +0.047 C 
ATOM     12 C12  LIG A   1      20.729  27.345  15.912  1.00 20.00    +0.256 C 
ATOM     13 O13  LIG A   1      21.674  26.783  16.465  1.00 20.00    -0.269 OA
ATOM     14 N14  LIG A   1      20.627  28.726  15.761  1.00 20.00    -0.278 NA
ATOM     15 C15  LIG A   1      21.522  29.324  14.759  1.00 20.00    +0.029 C 
ATOM     16 C16  LIG A   1      21.598  28.630  13.375  1.00 20.00    -0.034 C 
ATOM     17 C17  LIG A   1      20.337  28.859  12.536  1.00 20.00    -0.034 C 
ATOM     18 C18  LIG A   1      20.124  27.892  11.356  1.00 20.00    +0.085 C 
ATOM     19 C19  LIG A   1      18.952  28.394  10.526  1.00 20.00    +0.311 C 
ATOM     20 O20  LIG A   1      17.799  28.561  10.893  1.00 20.00    -0.252 OA
ATOM     21 O21  LIG A   1      19.305  28.679   9.253  1.00 20.00    -0.481 OA
ATOM     22 C22  LIG A   1      19.979  26.392  11.606  1.00 20.00    +0.009 A 
ATOM     23 C23  LIG A   1      20.836  25.543  10.881  1.00 20.00    -0.052 A 
ATOM     24 C24  LIG A   1      20.727  24.146  10.944  1.00 20.00    -0.038 A 
ATOM     25 C25  LIG A   1      19.727  23.528  11.694  1.00 20.00    +0.038 A 
ATOM     26 N26  LIG A   1      19.595  22.150  11.838  1.00 20.00    -0.385 NA
ATOM     27 C27  LIG A   1      20.270  21.190  10.976  1.00 20.00    +0.016 C 
ATOM     28 C28  LIG A   1      19.586  21.078   9.615  1.00 20.00    -0.023 C 
ATOM     29 C29  LIG A   1      20.346  20.108   8.705  1.00 20.00    -0.003 C 
ATOM     30 N30  LIG A   1      19.607  19.908   7.457  1.00 20.00    -0.317 NA
ATOM     31 C31  LIG A   1      20.358  19.098   6.495  1.00 20.00    -0.005 C 
ATOM     32 C32  LIG A   1      19.484  17.957   5.955  1.00 20.00    -0.039 C 
ATOM     33 C33  LIG A   1      19.045  16.930   7.009  1.00 20.00    -0.040 C 
ATOM     34 C34  LIG A   1      20.182  16.175   7.700  1.00 20.00    -0.008 C 
ATOM     35 N35  LIG A   1      20.936  15.324   6.787  1.00 20.00    -0.330 NA
ATOM     36 C36  LIG A   1      18.896  24.361  12.450  1.00 20.00    +0.004 A 
ATOM     37 C37  LIG A   1      19.024  25.761  12.424  1.00 20.00    +0.133 A 
ATOM     38 O38  LIG A   1      18.160  26.438  13.261  1.00 20.00    -0.456 OA
ATOM     39 C39  LIG A   1      20.332  29.413  16.945  1.00 20.00    +0.246 C 
ATOM     40 O40  LIG A   1      20.233  28.836  18.033  1.00 20.00    -0.273 OA
ATOM     41 C41  LIG A   1      20.091  30.972  16.862  1.00 20.00    +0.088 C 
ATOM     42 N42  LIG A   1      21.399  31.626  17.112  1.00 20.00    -0.320 NA
ATOM     43 O43  LIG A   1      19.373  27.521  13.820  1.00 20.00    -0.504 OA
ATOM     44 C44  LIG A   1      19.389  26.304  13.196  1.00 20.00    +0.161 A 
ATOM     45 C45  LIG A   1      18.756  25.189  13.739  1.00 20.00    -0.016 A 
ATOM     46 C46  LIG A   1      18.806  23.970  13.051  1.00 20.00    -0.055 A 
ATOM     47 C47  LIG A   1      19.482  23.870  11.830  1.00 20.00    -0.016 A 
ATOM     48 C48  LIG A   1      20.110  24.993  11.307  1.00 20.00    +0.161 A 
ATOM     49 O49  LIG A   1      20.771  24.898  10.117  1.00 20.00    -0.504 OA
ATOM     50 C50  LIG A   1      20.064  26.204  11.985  1.00 20.00    +0.200 A 
ATOM     51 O51  LIG A   1      20.692  27.295  11.444  1.00 20.00    -0.502 OA
ATOM     52 H52  LIG A   1      20.140  33.017  18.941  1.00 20.00    +0.023 H 
ATOM     53 H53  LIG A   1      18.396  33.196  19.074  1.00 20.00    +0.023 H 
ATOM     54 H54  LIG A   1      19.199  33.598  17.548  1.00 20.00    +0.023 H 
ATOM     55 H55  LIG A   1      19.094  30.817  18.811  1.00 20.00    +0.032 H 
ATOM     56 H56  LIG A   1      17.289  32.189  16.775  1.00 20.00    +0.032 H 
ATOM     57 H57  LIG A   1      16.837  31.414  18.279  1.00 20.00    +0.032 H 
ATOM     58 H58  LIG A   1      16.911  31.026  14.766  1.00 20.00    +0.063 H 
ATOM     59 H59  LIG A   1      17.312  28.995  13.471  1.00 20.00    +0.063 H 
ATOM     60 H60  LIG A   1      17.865  26.780  17.133  1.00 20.00    +0.063 H 
ATOM     61 H61  LIG A   1      17.359  28.782  18.426  1.00 20.00    +0.063 H 
ATOM     62 H62  LIG A   1      20.498  25.785  14.480  1.00 20.00    +0.072 H 
ATOM     63 H63  LIG A   1      22.527  29.316  15.198  1.00 20.00    +0.050 H 
ATOM     64 H64  LIG A   1      21.254  30.372  14.601  1.00 20.00    +0.050 H 
ATOM     65 H65  LIG A   1      21.833  27.568  13.482  1.00 20.00    +0.029 H 
ATOM     66 H66  LIG A   1      22.447  29.061  12.828  1.00 20.00    +0.029 H 
ATOM     67 H67  LIG A   1      19.460  28.872  13.169  1.00 20.00    +0.028 H 
ATOM     68 H68  LIG A   1      20.390  29.885  12.137  1.00 20.00    +0.028 H 
ATOM     69 H69  LIG A   1      21.016  28.032  10.729  1.00 20.00    +0.047 H 
ATOM     70 H70  LIG A   1      18.460  28.938   8.826  1.00 20.00    +0.296 HD
ATOM     71 H71  LIG A   1      21.609  25.959  10.234  1.00 20.00    +0.063 H 
ATOM     72 H72  LIG A   1      21.439  23.561  10.371  1.00 20.00    +0.064 H 
ATOM     73 H73  LIG A   1      18.652  21.866  12.095  1.00 20.00    +0.160 HD
ATOM     74 H74  LIG A   1      20.227  20.212  11.471  1.00 20.00    +0.049 H 
ATOM     75 H75  LIG A   1      21.334  21.425  10.874  1.00 20.00    +0.049 H 
ATOM     76 H76  LIG A   1      19.529  22.063   9.137  1.00 20.00    +0.030 H 
ATOM     77 H77  LIG A   1      18.552  20.738   9.748  1.00 20.00    +0.030 H 
ATOM     78 H78  LIG A   1      21.345  20.515   8.500  1.00 20.00    +0.043 H 
ATOM     79 H79  LIG A   1      20.469  19.141   9.214  1.00 20.00    +0.043 H 
ATOM     80 H80  LIG A   1      19.377  20.818   7.041  1.00 20.00    +0.122 HD
ATOM     81 H81  LIG A   1      21.281  18.694   6.922  1.00 20.00    +0.043 H 
ATOM     82 H82  LIG A   1      20.663  19.742   5.658  1.00 20.00    +0.043 H 
ATOM     83 H83  LIG A   1      20.021  17.452   5.140  1.00 20.00    +0.028 H 
ATOM     84 H84  LIG A   1      18.581  18.382   5.495  1.00 20.00    +0.028 H 
ATOM     85 H85  LIG A   1      18.371  16.206   6.533  1.00 20.00    +0.028 H 
ATOM     86 H86  LIG A   1      18.447  17.433   7.783  1.00 20.00    +0.028 H 
ATOM     87 H87  LIG A   1      19.755  15.540   8.485  1.00 20.00    +0.043 H 
ATOM     88 H88  LIG A   1      20.872  16.863   8.199  1.00 20.00    +0.043 H 
ATOM     89 H89  LIG A   1      21.330  15.875   6.028  1.00 20.00    +0.118 HD
ATOM     90 H90  LIG A   1      20.303  14.650   6.354  1.00 20.00    +0.118 HD
ATOM     91 H91  LIG A   1      18.140  23.924  13.098  1.00 20.00    +0.068 H 
ATOM     92 H92  LIG A   1      19.750  31.242  15.861  1.00 20.00    +0.057 H 
ATOM     93 H93  LIG A   1      22.122  31.260  16.505  1.00 20.00    +0.119 HD
ATOM     94 H94  LIG A   1      21.328  32.623  16.919  1.00 20.00    +0.119 HD
ATOM     95 H95  LIG A   1      18.839  27.438  14.629  1.00 20.00    +0.293 HD
ATOM     96 H96  LIG A   1      18.228  25.243  14.685  1.00 20.00    +0.066 H 
ATOM     97 H97  LIG A   1      18.316  23.092  13.467  1.00 20.00    +0.063 H 
ATOM     98 H98  LIG A   1      19.520  22.928  11.291  1.00 20.00    +0.066 H 
ATOM     99 H99  LIG A   1      21.150  25.789   9.981  1.00 20.00    +0.293 HD
ATOM    100 H100 LIG A   1      20.500  28.016  12.078  1.00 20.00    +0.293 HD
ENDROOT
TORSDOF 0
                                                                                                       
ENDMDL
MODEL 3
REMARK VINA RESULT:   -11.528      3.420      6.213
REMARK INTER + INTRA:         -11.528
REMARK INTER:                 -11.528
REMARK INTRA:                   0.000
REMARK UNBOUND:                 0.000
ROOT
ATOM      1 C1   LIG A   1      23.631  18.223   5.722  1.00 20.00    -0.060 C 
ATOM      2 C2   LIG A   1      22.585  19.023   6.523  1.00 20.00    -0.016 C 
ATOM      3 C3   LIG A   1      21.985  18.037   7.585  1.00 20.00    -0.023 C 
ATOM      4 C4   LIG A   1      21.136  18.707   8.628  1.00 20.00    -0.048 A 
ATOM      5 C5   LIG A   1      21.641  18.885   9.920  1.00 20.00    -0.058 A 
ATOM      6 C6   LIG A   1      21.142  19.909  10.714  1.00 20.00    -0.051 A 
ATOM      7 C7   LIG A   1      20.195  20.786  10.176  1.00 20.00    +0.017 A 
ATOM      8 C8   LIG A   1      19.485  20.404   9.032  1.00 20.00    -0.051 A 
ATOM      9 C9   LIG A   1      19.950  19.346   8.258  1.00 20.00    -0.058 A 
ATOM     10 C10  LIG A   1      20.131  22.184  10.649  1.00 20.00    +0.140 C 
ATOM     11 C11  LIG A   1      20.332  23.224   9.808  1.00 20.00    +0.047 C 
ATOM     12 C12  LIG A   1      20.978  23.205   8.454  1.00 20.00    +0.256 C 
ATOM     13 O13  LIG A   1      20.767  24.150   7.694  1.00 20.00    -0.269 OA
ATOM     14 N14  LIG A   1      22.073  22.353   8.346  1.00 20.00    -0.278 NA
ATOM     15 C15  LIG A   1      23.366  22.923   8.756  1.00 20.00    +0.029 C 
ATOM     16 C16  LIG A   1      23.404  23.691  10.102  1.00 20.00    -0.034 C 
ATOM     17 C17  LIG A   1      23.316  22.755  11.312  1.00 20.00    -0.034 C 
ATOM     18 C18  LIG A   1      22.922  23.413  12.649  1.00 20.00    +0.085 C 
ATOM     19 C19  LIG A   1      23.087  22.386  13.759  1.00 20.00    +0.311 C 
ATOM     20 O20  LIG A   1      22.524  21.307  13.862  1.00 20.00    -0.252 OA
ATOM     21 O21  LIG A   1      23.982  22.775  14.693  1.00 20.00    -0.481 OA
ATOM     22 C22  LIG A   1      21.576  24.121  12.791  1.00 20.00    +0.009 A 
ATOM     23 C23  LIG A   1      21.603  25.446  13.266  1.00 20.00    -0.052 A 
ATOM     24 C24  LIG A   1      20.429  26.162  13.540  1.00 20.00    -0.038 A 
ATOM     25 C25  LIG A   1      19.171  25.577  13.401  1.00 20.00    +0.038 A 
ATOM     26 N26  LIG A   1      17.969  26.246  13.608  1.00 20.00    -0.385 NA
ATOM     27 C27  LIG A   1      17.877  27.524  14.302  1.00 20.00    +0.016 C 
ATOM     28 C28  LIG A   1      18.002  27.354  15.814  1.00 20.00    -0.023 C 
ATOM     29 C29  LIG A   1      17.962  28.714  16.518  1.00 20.00    -0.003 C 
ATOM     30 N30  LIG A   1      17.946  28.527  17.969  1.00 20.00    -0.317 NA
ATOM     31 C31  LIG A   1      18.049  29.798  18.691  1.00 20.00    -0.005 C 
ATOM     32 C32  LIG A   1      16.950  29.900  19.759  1.00 20.00    -0.039 C 
ATOM     33 C33  LIG A   1      15.517  29.925  19.206  1.00 20.00    -0.040 C 
ATOM     34 C34  LIG A   1      15.191  31.103  18.286  1.00 20.00    -0.008 C 
ATOM     35 N35  LIG A   1      15.243  32.389  18.970  1.00 20.00    -0.330 NA
ATOM     36 C36  LIG A   1      19.131  24.275  12.892  1.00 20.00    +0.004 A 
ATOM     37 C37  LIG A   1      20.302  23.563  12.576  1.00 20.00    +0.133 A 
ATOM     38 O38  LIG A   1      20.091  22.309  12.040  1.00 20.00    -0.456 OA
ATOM     39 C39  LIG A   1      22.004  21.461   7.269  1.00 20.00    +0.246 C 
ATOM     40 O40  LIG A   1      21.073  21.482   6.457  1.00 20.00    -0.273 OA
ATOM     41 C41  LIG A   1      23.147  20.381   7.121  1.00 20.00    +0.088 C 
ATOM     42 N42  LIG A   1      24.184  20.965   6.237  1.00 20.00    -0.320 NA
ATOM     43 O43  LIG A   1      21.298  22.502  10.831  1.00 20.00    -0.504 OA
ATOM     44 C44  LIG A   1      20.597  23.362  11.629  1.00 20.00    +0.161 A 
ATOM     45 C45  LIG A   1      19.205  23.399  11.629  1.00 20.00    -0.016 A 
ATOM     46 C46  LIG A   1      18.543  24.301  12.472  1.00 20.00    -0.055 A 
ATOM     47 C47  LIG A   1      19.270  25.156  13.309  1.00 20.00    -0.016 A 
ATOM     48 C48  LIG A   1      20.657  25.105  13.292  1.00 20.00    +0.161 A 
ATOM     49 O49  LIG A   1      21.368  25.939  14.106  1.00 20.00    -0.504 OA
ATOM     50 C50  LIG A   1      21.318  24.214  12.458  1.00 20.00    +0.200 A 
ATOM     51 O51  LIG A   1      22.688  24.186  12.463  1.00 20.00    -0.502 OA
ATOM     52 H52  LIG A   1      23.954  18.768   4.828  1.00 20.00    +0.023 H 
ATOM     53 H53  LIG A   1      23.213  17.272   5.377  1.00 20.00    +0.023 H 
ATOM     54 H54  LIG A   1      24.514  17.999   6.332  1.00 20.00    +0.023 H 
ATOM     55 H55  LIG A   1      21.780  19.264   5.816  1.00 20.00    +0.032 H 
ATOM     56 H56  LIG A   1      22.804  17.498   8.080  1.00 20.00    +0.032 H 
ATOM     57 H57  LIG A   1      21.385  17.268   7.080  1.00 20.00    +0.032 H 
ATOM     58 H58  LIG A   1      22.505  18.324  10.263  1.00 20.00    +0.063 H 
ATOM     59 H59  LIG A   1      21.613  20.107  11.671  1.00 20.00    +0.063 H 
ATOM     60 H60  LIG A   1      18.688  21.029   8.636  1.00 20.00    +0.063 H 
ATOM     61 H61  LIG A   1      19.508  19.180   7.277  1.00 20.00    +0.063 H 
ATOM     62 H62  LIG A   1      20.208  24.250  10.144  1.00 20.00    +0.072 H 
ATOM     63 H63  LIG A   1      23.664  23.616   7.961  1.00 20.00    +0.050 H 
ATOM     64 H64  LIG A   1      24.124  22.136   8.791  1.00 20.00    +0.050 H 
ATOM     65 H65  LIG A   1      22.639  24.471  10.130  1.00 20.00    +0.029 H 
ATOM     66 H66  LIG A   1      24.363  24.222  10.160  1.00 20.00    +0.029 H 
ATOM     67 H67  LIG A   1      22.658  21.924  11.100  1.00 20.00    +0.028 H 
ATOM     68 H68  LIG A   1      24.305  22.286  11.436  1.00 20.00    +0.028 H 
ATOM     69 H69  LIG A   1      23.704  24.166  12.819  1.00 20.00    +0.047 H 
ATOM     70 H70  LIG A   1      23.952  22.057  15.363  1.00 20.00    +0.296 HD
ATOM     71 H71  LIG A   1      22.554  25.949  13.446  1.00 20.00    +0.063 H 
ATOM     72 H72  LIG A   1      20.535  27.186  13.884  1.00 20.00    +0.064 H 
ATOM     73 H73  LIG A   1      17.195  25.619  13.818  1.00 20.00    +0.160 HD
ATOM     74 H74  LIG A   1      16.893  27.953  14.077  1.00 20.00    +0.049 H 
ATOM     75 H75  LIG A   1      18.608  28.241  13.915  1.00 20.00    +0.049 H 
ATOM     76 H76  LIG A   1      18.938  26.839  16.061  1.00 20.00    +0.030 H 
ATOM     77 H77  LIG A   1      17.190  26.715  16.182  1.00 20.00    +0.030 H 
ATOM     78 H78  LIG A   1      18.838  29.302  16.214  1.00 20.00    +0.043 H 
ATOM     79 H79  LIG A   1      17.059  29.263  16.212  1.00 20.00    +0.043 H 
ATOM     80 H80  LIG A   1      18.717  27.907  18.247  1.00 20.00    +0.122 HD
ATOM     81 H81  LIG A   1      18.002  30.662  18.020  1.00 20.00    +0.043 H 
ATOM     82 H82  LIG A   1      19.031  29.844  19.181  1.00 20.00    +0.043 H 
ATOM     83 H83  LIG A   1      17.131  30.793  20.372  1.00 20.00    +0.028 H 
ATOM     84 H84  LIG A   1      17.036  29.047  20.446  1.00 20.00    +0.028 H 
ATOM     85 H85  LIG A   1      14.816  29.926  20.050  1.00 20.00    +0.028 H 
ATOM     86 H86  LIG A   1      15.321  28.994  18.654  1.00 20.00    +0.028 H 
ATOM     87 H87  LIG A   1      14.180  30.968  17.888  1.00 20.00    +0.043 H 
ATOM     88 H88  LIG A   1      15.863  31.131  17.421  1.00 20.00    +0.043 H 
ATOM     89 H89  LIG A   1      16.164  32.542  19.375  1.00 20.00    +0.118 HD
ATOM     90 H90  LIG A   1      14.584  32.384  19.749  1.00 20.00    +0.118 HD
ATOM     91 H91  LIG A   1      18.171  23.797  12.708  1.00 20.00    +0.068 H 
ATOM     92 H92  LIG A   1      23.593  20.176   8.096  1.00 20.00    +0.057 H 
ATOM     93 H93  LIG A   1      24.481  21.878   6.561  1.00 20.00    +0.119 HD
ATOM     94 H94  LIG A   1      25.010  20.370   6.233  1.00 20.00    +0.119 HD
ATOM     95 H95  LIG A   1      20.659  21.956  10.341  1.00 20.00    +0.293 HD
ATOM     96 H96  LIG A   1      18.622  22.747  10.988  1.00 20.00    +0.066 H 
ATOM     97 H97  LIG A   1      17.456  24.339  12.479  1.00 20.00    +0.063 H 
ATOM     98 H98  LIG A   1      18.761  25.854  13.967  1.00 20.00    +0.066 H 
ATOM     99 H99  LIG A   1      22.302  25.745  13.891  1.00 20.00    +0.293 HD
ATOM    100 H100 LIG A   1      22.913  23.476  11.828  1.00 20.00    +0.293 HD
ENDROOT
TORSDOF 0
                                                                                                       
ENDMDL
MODEL 4
REMARK VINA RESULT:   -11.374      5.873      8.897
REMARK INTER + INTRA:         -11.374
REMARK INTER:                 -11.374
REMARK INTRA:                   0.000
REMARK UNBOUND:                 0.000
ROOT
ATOM      1 C1   LIG A   1      25.127  22.458   7.191  1.00 20.00    -0.060 C 
ATOM      2 C2   LIG A   1      23.815  22.832   7.907  1.00 20.00    -0.016 C 
ATOM      3 C3   LIG A   1      23.279  21.518   8.574  1.00 20.00    -0.023 C 
ATOM      4 C4   LIG A   1      22.145  21.741   9.535  1.00 20.00    -0.048 A 
ATOM      5 C5   LIG A   1      22.380  21.664  10.912  1.00 20.00    -0.058 A 
ATOM      6 C6   LIG A   1      21.545  22.348  11.786  1.00 20.00    -0.051 A 
ATOM      7 C7   LIG A   1      20.531  23.156  11.265  1.00 20.00    +0.017 A 
ATOM      8 C8   LIG A   1      20.120  22.965   9.941  1.00 20.00    -0.051 A 
ATOM      9 C9   LIG A   1      20.925  22.239   9.071  1.00 20.00    -0.058 A 
ATOM     10 C10  LIG A   1      20.086  24.353  12.009  1.00 20.00    +0.140 C 
ATOM     11 C11  LIG A   1      20.189  25.593  11.479  1.00 20.00    +0.047 C 
ATOM     12 C12  LIG A   1      21.037  26.035  10.322  1.00 20.00    +0.256 C 
ATOM     13 O13  LIG A   1      20.752  27.092   9.761  1.00 20.00    -0.269 OA
ATOM     14 N14  LIG A   1      22.295  25.440  10.265  1.00 20.00    -0.278 NA
ATOM     15 C15  LIG A   1      23.346  26.100  11.055  1.00 20.00    +0.029 C 
ATOM     16 C16  LIG A   1      22.994  26.490  12.513  1.00 20.00    -0.034 C 
ATOM     17 C17  LIG A   1      22.915  25.274  13.441  1.00 20.00    -0.034 C 
ATOM     18 C18  LIG A   1      22.174  25.488  14.775  1.00 20.00    +0.085 C 
ATOM     19 C19  LIG A   1      22.375  24.254  15.642  1.00 20.00    +0.311 C 
ATOM     20 O20  LIG A   1      22.053  23.105  15.385  1.00 20.00    -0.252 OA
ATOM     21 O21  LIG A   1      22.997  24.538  16.807  1.00 20.00    -0.481 OA
ATOM     22 C22  LIG A   1      20.701  25.892  14.780  1.00 20.00    +0.009 A 
ATOM     23 C23  LIG A   1      20.359  27.034  15.528  1.00 20.00    -0.052 A 
ATOM     24 C24  LIG A   1      19.028  27.443  15.697  1.00 20.00    -0.038 A 
ATOM     25 C25  LIG A   1      17.968  26.705  15.170  1.00 20.00    +0.038 A 
ATOM     26 N26  LIG A   1      16.632  27.081  15.259  1.00 20.00    -0.385 NA
ATOM     27 C27  LIG A   1      16.150  28.102  16.179  1.00 20.00    +0.016 C 
ATOM     28 C28  LIG A   1      16.060  27.572  17.609  1.00 20.00    -0.023 C 
ATOM     29 C29  LIG A   1      15.608  28.677  18.568  1.00 20.00    -0.003 C 
ATOM     30 N30  LIG A   1      15.396  28.124  19.907  1.00 20.00    -0.317 NA
ATOM     31 C31  LIG A   1      15.098  29.164  20.894  1.00 20.00    -0.005 C 
ATOM     32 C32  LIG A   1      13.844  28.797  21.700  1.00 20.00    -0.039 C 
ATOM     33 C33  LIG A   1      12.550  28.716  20.875  1.00 20.00    -0.040 C 
ATOM     34 C34  LIG A   1      12.130  30.016  20.188  1.00 20.00    -0.008 C 
ATOM     35 N35  LIG A   1      11.786  31.072  21.133  1.00 20.00    -0.330 NA
ATOM     36 C36  LIG A   1      18.298  25.591  14.391  1.00 20.00    +0.004 A 
ATOM     37 C37  LIG A   1      19.632  25.197  14.183  1.00 20.00    +0.133 A 
ATOM     38 O38  LIG A   1      19.792  24.107  13.352  1.00 20.00    -0.456 OA
ATOM     39 C39  LIG A   1      22.600  24.858   9.029  1.00 20.00    +0.246 C 
ATOM     40 O40  LIG A   1      21.834  24.926   8.062  1.00 20.00    -0.273 OA
ATOM     41 C41  LIG A   1      23.960  24.066   8.893  1.00 20.00    +0.088 C 
ATOM     42 N42  LIG A   1      24.975  25.028   8.400  1.00 20.00    -0.320 NA
ATOM     43 O43  LIG A   1      21.109  24.810  12.499  1.00 20.00    -0.504 OA
ATOM     44 C44  LIG A   1      20.115  25.301  13.299  1.00 20.00    +0.161 A 
ATOM     45 C45  LIG A   1      18.768  25.096  13.011  1.00 20.00    -0.016 A 
ATOM     46 C46  LIG A   1      17.796  25.623  13.872  1.00 20.00    -0.055 A 
ATOM     47 C47  LIG A   1      18.171  26.346  15.010  1.00 20.00    -0.016 A 
ATOM     48 C48  LIG A   1      19.519  26.541  15.278  1.00 20.00    +0.161 A 
ATOM     49 O49  LIG A   1      19.887  27.247  16.386  1.00 20.00    -0.504 OA
ATOM     50 C50  LIG A   1      20.487  26.022  14.428  1.00 20.00    +0.200 A 
ATOM     51 O51  LIG A   1      21.810  26.230  14.718  1.00 20.00    -0.502 OA
ATOM     52 H52  LIG A   1      25.465  23.262   6.528  1.00 20.00    +0.023 H 
ATOM     53 H53  LIG A   1      24.990  21.570   6.565  1.00 20.00    +0.023 H 
ATOM     54 H54  LIG A   1      25.925  22.240   7.910  1.00 20.00    +0.023 H 
ATOM     55 H55  LIG A   1      23.103  23.104   7.116  1.00 20.00    +0.032 H 
ATOM     56 H56  LIG A   1      24.104  21.019   9.102  1.00 20.00    +0.032 H 
ATOM     57 H57  LIG A   1      22.953  20.813   7.798  1.00 20.00    +0.032 H 
ATOM     58 H58  LIG A   1      23.278  21.191  11.298  1.00 20.00    +0.063 H 
ATOM     59 H59  LIG A   1      21.799  22.370  12.841  1.00 20.00    +0.063 H 
ATOM     60 H60  LIG A   1      19.281  23.523   9.532  1.00 20.00    +0.063 H 
ATOM     61 H61  LIG A   1      20.697  22.257   8.006  1.00 20.00    +0.063 H 
ATOM     62 H62  LIG A   1      19.791  26.461  11.997  1.00 20.00    +0.072 H 
ATOM     63 H63  LIG A   1      23.612  27.016  10.513  1.00 20.00    +0.050 H 
ATOM     64 H64  LIG A   1      24.242  25.473  11.076  1.00 20.00    +0.050 H 
ATOM     65 H65  LIG A   1      22.083  27.094  12.548  1.00 20.00    +0.029 H 
ATOM     66 H66  LIG A   1      23.791  27.147  12.888  1.00 20.00    +0.029 H 
ATOM     67 H67  LIG A   1      22.500  24.425  12.917  1.00 20.00    +0.028 H 
ATOM     68 H68  LIG A   1      23.949  24.967  13.667  1.00 20.00    +0.028 H 
ATOM     69 H69  LIG A   1      22.733  26.295  15.268  1.00 20.00    +0.047 H 
ATOM     70 H70  LIG A   1      23.016  23.678  17.280  1.00 20.00    +0.296 HD
ATOM     71 H71  LIG A   1      21.133  27.631  16.012  1.00 20.00    +0.063 H 
ATOM     72 H72  LIG A   1      18.849  28.346  16.272  1.00 20.00    +0.064 H 
ATOM     73 H73  LIG A   1      15.990  26.297  15.156  1.00 20.00    +0.160 HD
ATOM     74 H74  LIG A   1      15.146  28.397  15.851  1.00 20.00    +0.049 H 
ATOM     75 H75  LIG A   1      16.760  29.009  16.123  1.00 20.00    +0.049 H 
ATOM     76 H76  LIG A   1      17.032  27.180  17.930  1.00 20.00    +0.030 H 
ATOM     77 H77  LIG A   1      15.358  26.730  17.647  1.00 20.00    +0.030 H 
ATOM     78 H78  LIG A   1      16.372  29.466  18.594  1.00 20.00    +0.043 H 
ATOM     79 H79  LIG A   1      14.670  29.122  18.206  1.00 20.00    +0.043 H 
ATOM     80 H80  LIG A   1      16.227  27.595  20.198  1.00 20.00    +0.122 HD
ATOM     81 H81  LIG A   1      14.974  30.150  20.435  1.00 20.00    +0.043 H 
ATOM     82 H82  LIG A   1      15.952  29.251  21.580  1.00 20.00    +0.043 H 
ATOM     83 H83  LIG A   1      13.721  29.519  22.518  1.00 20.00    +0.028 H 
ATOM     84 H84  LIG A   1      14.000  27.824  22.186  1.00 20.00    +0.028 H 
ATOM     85 H85  LIG A   1      11.737  28.378  21.531  1.00 20.00    +0.028 H 
ATOM     86 H86  LIG A   1      12.657  27.938  20.104  1.00 20.00    +0.028 H 
ATOM     87 H87  LIG A   1      11.252  29.815  19.565  1.00 20.00    +0.043 H 
ATOM     88 H88  LIG A   1      12.912  30.381  19.513  1.00 20.00    +0.043 H 
ATOM     89 H89  LIG A   1      12.573  31.272  21.747  1.00 20.00    +0.118 HD
ATOM     90 H90  LIG A   1      11.026  30.752  21.733  1.00 20.00    +0.118 HD
ATOM     91 H91  LIG A   1      17.510  25.019  13.907  1.00 20.00    +0.068 H 
ATOM     92 H92  LIG A   1      24.274  23.697   9.872  1.00 20.00    +0.057 H 
ATOM     93 H93  LIG A   1      25.007  25.864   8.972  1.00 20.00    +0.119 HD
ATOM     94 H94  LIG A   1      25.900  24.606   8.441  1.00 20.00    +0.119 HD
ATOM     95 H95  LIG A   1      20.694  24.306  11.777  1.00 20.00    +0.293 HD
ATOM     96 H96  LIG A   1      18.455  24.541  12.134  1.00 20.00    +0.066 H 
ATOM     97 H97  LIG A   1      16.741  25.470  13.656  1.00 20.00    +0.063 H 
ATOM     98 H98  LIG A   1      17.421  26.752  15.682  1.00 20.00    +0.066 H 
ATOM     99 H99  LIG A   1      20.863  27.278  16.338  1.00 20.00    +0.293 HD
ATOM    100 H100 LIG A   1      22.285  25.758  14.005  1.00 20.00    +0.293 HD
ENDROOT
TORSDOF 0
                                                                                                       
ENDMDL
MODEL 5
REMARK VINA RESULT:   -10.890      2.520      3.187
REMARK INTER + INTRA:         -10.890
REMARK INTER:                 -10.890
REMARK INTRA:                   0.000
REMARK UNBOUND:                 0.000
ROOT
ATOM      1 C1   LIG A   1      17.786  10.940   3.130  1.00 20.00    -0.060 C 
ATOM      2 C2   LIG A   1      17.919  12.366   3.697  1.00 20.00    -0.016 C 
ATOM      3 C3   LIG A   1      16.547  12.707   4.377  1.00 20.00    -0.023 C 
ATOM      4 C4   LIG A   1      16.575  13.956   5.212  1.00 20.00    -0.048 A 
ATOM      5 C5   LIG A   1      16.589  13.855   6.607  1.00 20.00    -0.058 A 
ATOM      6 C6   LIG A   1      17.124  14.891   7.362  1.00 20.00    -0.051 A 
ATOM      7 C7   LIG A   1      17.702  15.982   6.706  1.00 20.00    +0.017 A 
ATOM      8 C8   LIG A   1      17.392  16.209   5.360  1.00 20.00    -0.051 A 
ATOM      9 C9   LIG A   1      16.810  15.194   4.609  1.00 20.00    -0.058 A 
ATOM     10 C10  LIG A   1      18.812  16.722   7.341  1.00 20.00    +0.140 C 
ATOM     11 C11  LIG A   1      20.030  16.804   6.760  1.00 20.00    +0.047 C 
ATOM     12 C12  LIG A   1      20.592  15.941   5.668  1.00 20.00    +0.256 C 
ATOM     13 O13  LIG A   1      21.555  16.364   5.029  1.00 20.00    -0.269 OA
ATOM     14 N14  LIG A   1      20.254  14.594   5.762  1.00 20.00    -0.278 NA
ATOM     15 C15  LIG A   1      21.131  13.775   6.614  1.00 20.00    +0.029 C 
ATOM     16 C16  LIG A   1      21.492  14.345   8.009  1.00 20.00    -0.034 C 
ATOM     17 C17  LIG A   1      20.314  14.285   8.987  1.00 20.00    -0.034 C 
ATOM     18 C18  LIG A   1      20.421  15.188  10.231  1.00 20.00    +0.085 C 
ATOM     19 C19  LIG A   1      19.279  14.845  11.176  1.00 20.00    +0.311 C 
ATOM     20 O20  LIG A   1      18.081  14.913  10.948  1.00 20.00    -0.252 OA
ATOM     21 O21  LIG A   1      19.716  14.413  12.379  1.00 20.00    -0.481 OA
ATOM     22 C22  LIG A   1      20.529  16.704  10.075  1.00 20.00    +0.009 A 
ATOM     23 C23  LIG A   1      21.606  17.333  10.728  1.00 20.00    -0.052 A 
ATOM     24 C24  LIG A   1      21.751  18.728  10.748  1.00 20.00    -0.038 A 
ATOM     25 C25  LIG A   1      20.804  19.566  10.160  1.00 20.00    +0.038 A 
ATOM     26 N26  LIG A   1      20.913  20.952  10.101  1.00 20.00    -0.385 NA
ATOM     27 C27  LIG A   1      21.849  21.713  10.918  1.00 20.00    +0.016 C 
ATOM     28 C28  LIG A   1      21.358  21.848  12.358  1.00 20.00    -0.023 C 
ATOM     29 C29  LIG A   1      22.383  22.600  13.212  1.00 20.00    -0.003 C 
ATOM     30 N30  LIG A   1      21.842  22.840  14.551  1.00 20.00    -0.317 NA
ATOM     31 C31  LIG A   1      22.835  23.432  15.450  1.00 20.00    -0.005 C 
ATOM     32 C32  LIG A   1      22.255  24.669  16.151  1.00 20.00    -0.039 C 
ATOM     33 C33  LIG A   1      21.897  25.831  15.211  1.00 20.00    -0.040 C 
ATOM     34 C34  LIG A   1      23.067  26.418  14.421  1.00 20.00    -0.008 C 
ATOM     35 N35  LIG A   1      24.065  27.054  15.273  1.00 20.00    -0.330 NA
ATOM     36 C36  LIG A   1      19.752  18.951   9.474  1.00 20.00    +0.004 A 
ATOM     37 C37  LIG A   1      19.620  17.551   9.415  1.00 20.00    +0.133 A 
ATOM     38 O38  LIG A   1      18.556  17.101   8.661  1.00 20.00    -0.456 OA
ATOM     39 C39  LIG A   1      19.703  14.056   4.593  1.00 20.00    +0.246 C 
ATOM     40 O40  LIG A   1      19.590  14.717   3.555  1.00 20.00    -0.273 OA
ATOM     41 C41  LIG A   1      19.189  12.563   4.628  1.00 20.00    +0.088 C 
ATOM     42 N42  LIG A   1      20.315  11.706   4.185  1.00 20.00    -0.320 NA
ATOM     43 O43  LIG A   1      19.475  15.861   7.902  1.00 20.00    -0.504 OA
ATOM     44 C44  LIG A   1      19.788  17.008   8.578  1.00 20.00    +0.161 A 
ATOM     45 C45  LIG A   1      19.314  18.254   8.173  1.00 20.00    -0.016 A 
ATOM     46 C46  LIG A   1      19.668  19.393   8.909  1.00 20.00    -0.055 A 
ATOM     47 C47  LIG A   1      20.486  19.284  10.039  1.00 20.00    -0.016 A 
ATOM     48 C48  LIG A   1      20.950  18.033  10.424  1.00 20.00    +0.161 A 
ATOM     49 O49  LIG A   1      21.749  17.923  11.524  1.00 20.00    -0.504 OA
ATOM     50 C50  LIG A   1      20.603  16.901   9.698  1.00 20.00    +0.200 A 
ATOM     51 O51  LIG A   1      21.075  15.679  10.102  1.00 20.00    -0.502 OA
ATOM     52 H52  LIG A   1      18.619  10.695   2.461  1.00 20.00    +0.023 H 
ATOM     53 H53  LIG A   1      16.869  10.839   2.540  1.00 20.00    +0.023 H 
ATOM     54 H54  LIG A   1      17.752  10.194   3.932  1.00 20.00    +0.023 H 
ATOM     55 H55  LIG A   1      18.022  13.031   2.829  1.00 20.00    +0.032 H 
ATOM     56 H56  LIG A   1      16.237  11.861   5.006  1.00 20.00    +0.032 H 
ATOM     57 H57  LIG A   1      15.769  12.810   3.610  1.00 20.00    +0.032 H 
ATOM     58 H58  LIG A   1      16.314  12.928   7.102  1.00 20.00    +0.063 H 
ATOM     59 H59  LIG A   1      17.230  14.757   8.433  1.00 20.00    +0.063 H 
ATOM     60 H60  LIG A   1      17.762  17.092   4.845  1.00 20.00    +0.063 H 
ATOM     61 H61  LIG A   1      16.749  15.310   3.528  1.00 20.00    +0.063 H 
ATOM     62 H62  LIG A   1      20.819  17.412   7.192  1.00 20.00    +0.072 H 
ATOM     63 H63  LIG A   1      22.063  13.635   6.053  1.00 20.00    +0.050 H 
ATOM     64 H64  LIG A   1      20.693  12.784   6.753  1.00 20.00    +0.050 H 
ATOM     65 H65  LIG A   1      21.906  15.353   7.927  1.00 20.00    +0.029 H 
ATOM     66 H66  LIG A   1      22.303  13.732   8.424  1.00 20.00    +0.029 H 
ATOM     67 H67  LIG A   1      19.383  14.474   8.470  1.00 20.00    +0.028 H 
ATOM     68 H68  LIG A   1      20.222  13.241   9.326  1.00 20.00    +0.028 H 
ATOM     69 H69  LIG A   1      21.337  14.847  10.734  1.00 20.00    +0.047 H 
ATOM     70 H70  LIG A   1      18.891  14.279  12.896  1.00 20.00    +0.296 HD
ATOM     71 H71  LIG A   1      22.357  16.742  11.251  1.00 20.00    +0.063 H 
ATOM     72 H72  LIG A   1      22.619  19.135  11.255  1.00 20.00    +0.064 H 
ATOM     73 H73  LIG A   1      20.017  21.418   9.978  1.00 20.00    +0.160 HD
ATOM     74 H74  LIG A   1      21.932  22.715  10.481  1.00 20.00    +0.049 H 
ATOM     75 H75  LIG A   1      22.856  21.285  10.874  1.00 20.00    +0.049 H 
ATOM     76 H76  LIG A   1      21.175  20.857  12.790  1.00 20.00    +0.030 H 
ATOM     77 H77  LIG A   1      20.397  22.376  12.372  1.00 20.00    +0.030 H 
ATOM     78 H78  LIG A   1      23.306  22.008  13.270  1.00 20.00    +0.043 H 
ATOM     79 H79  LIG A   1      22.624  23.563  12.739  1.00 20.00    +0.043 H 
ATOM     80 H80  LIG A   1      21.496  21.957  14.947  1.00 20.00    +0.122 HD
ATOM     81 H81  LIG A   1      23.762  23.694  14.931  1.00 20.00    +0.043 H 
ATOM     82 H82  LIG A   1      23.109  22.686  16.209  1.00 20.00    +0.043 H 
ATOM     83 H83  LIG A   1      22.966  25.012  16.915  1.00 20.00    +0.028 H 
ATOM     84 H84  LIG A   1      21.348  24.380  16.698  1.00 20.00    +0.028 H 
ATOM     85 H85  LIG A   1      21.427  26.627  15.803  1.00 20.00    +0.028 H 
ATOM     86 H86  LIG A   1      21.131  25.498  14.495  1.00 20.00    +0.028 H 
ATOM     87 H87  LIG A   1      22.679  27.172  13.728  1.00 20.00    +0.043 H 
ATOM     88 H88  LIG A   1      23.556  25.655  13.806  1.00 20.00    +0.043 H 
ATOM     89 H89  LIG A   1      24.434  26.389  15.949  1.00 20.00    +0.118 HD
ATOM     90 H90  LIG A   1      23.622  27.798  15.814  1.00 20.00    +0.118 HD
ATOM     91 H91  LIG A   1      19.021  19.560   8.948  1.00 20.00    +0.068 H 
ATOM     92 H92  LIG A   1      18.920  12.287   5.650  1.00 20.00    +0.057 H 
ATOM     93 H93  LIG A   1      21.158  11.893   4.714  1.00 20.00    +0.119 HD
ATOM     94 H94  LIG A   1      20.083  10.726   4.336  1.00 20.00    +0.119 HD
ATOM     95 H95  LIG A   1      18.877  16.096   7.171  1.00 20.00    +0.293 HD
ATOM     96 H96  LIG A   1      18.681  18.362   7.300  1.00 20.00    +0.066 H 
ATOM     97 H97  LIG A   1      19.305  20.371   8.601  1.00 20.00    +0.063 H 
ATOM     98 H98  LIG A   1      20.759  20.163  10.615  1.00 20.00    +0.066 H 
ATOM     99 H99  LIG A   1      21.969  16.972  11.568  1.00 20.00    +0.293 HD
ATOM    100 H100 LIG A   1      20.682  15.051   9.463  1.00 20.00    +0.293 HD
ENDROOT
TORSDOF 0
                                                                                                       
ENDMDL
MODEL 6
REMARK VINA RESULT:   -10.760      4.400      8.199
REMARK INTER + INTRA:         -10.760
REMARK INTER:                 -10.760
REMARK INTRA:                   0.000
REMARK UNBOUND:                 0.000
ROOT
ATOM      1 C1   LIG A   1      24.515  19.015   8.279  1.00 20.00    -0.060 C 
ATOM      2 C2   LIG A   1      23.388  19.601   9.150  1.00 20.00    -0.016 C 
ATOM      3 C3   LIG A   1      23.478  18.883  10.542  1.00 20.00    -0.023 C 
ATOM      4 C4   LIG A   1      22.624  19.510  11.607  1.00 20.00    -0.048 A 
ATOM      5 C5   LIG A   1      23.223  20.281  12.609  1.00 20.00    -0.058 A 
ATOM      6 C6   LIG A   1      22.478  21.258  13.256  1.00 20.00    -0.051 A 
ATOM      7 C7   LIG A   1      21.165  21.498  12.842  1.00 20.00    +0.017 A 
ATOM      8 C8   LIG A   1      20.500  20.525  12.087  1.00 20.00    -0.051 A 
ATOM      9 C9   LIG A   1      21.233  19.513  11.475  1.00 20.00    -0.058 A 
ATOM     10 C10  LIG A   1      20.584  22.850  12.975  1.00 20.00    +0.140 C 
ATOM     11 C11  LIG A   1      20.157  23.545  11.896  1.00 20.00    +0.047 C 
ATOM     12 C12  LIG A   1      20.493  23.307  10.452  1.00 20.00    +0.256 C 
ATOM     13 O13  LIG A   1      19.759  23.797   9.595  1.00 20.00    -0.269 OA
ATOM     14 N14  LIG A   1      21.812  22.925  10.220  1.00 20.00    -0.278 NA
ATOM     15 C15  LIG A   1      22.777  24.026  10.077  1.00 20.00    +0.029 C 
ATOM     16 C16  LIG A   1      22.717  25.160  11.132  1.00 20.00    -0.034 C 
ATOM     17 C17  LIG A   1      23.263  24.720  12.494  1.00 20.00    -0.034 C 
ATOM     18 C18  LIG A   1      22.868  25.599  13.697  1.00 20.00    +0.085 C 
ATOM     19 C19  LIG A   1      23.660  25.138  14.911  1.00 20.00    +0.311 C 
ATOM     20 O20  LIG A   1      23.652  24.031  15.427  1.00 20.00    -0.252 OA
ATOM     21 O21  LIG A   1      24.447  26.114  15.415  1.00 20.00    -0.481 OA
ATOM     22 C22  LIG A   1      21.398  25.776  14.071  1.00 20.00    +0.009 A 
ATOM     23 C23  LIG A   1      20.930  27.098  14.195  1.00 20.00    -0.052 A 
ATOM     24 C24  LIG A   1      19.631  27.388  14.637  1.00 20.00    -0.038 A 
ATOM     25 C25  LIG A   1      18.751  26.378  15.024  1.00 20.00    +0.038 A 
ATOM     26 N26  LIG A   1      17.436  26.595  15.424  1.00 20.00    -0.385 NA
ATOM     27 C27  LIG A   1      16.922  27.907  15.796  1.00 20.00    +0.016 C 
ATOM     28 C28  LIG A   1      17.378  28.311  17.197  1.00 20.00    -0.023 C 
ATOM     29 C29  LIG A   1      16.875  29.716  17.545  1.00 20.00    -0.003 C 
ATOM     30 N30  LIG A   1      17.203  30.036  18.935  1.00 20.00    -0.317 NA
ATOM     31 C31  LIG A   1      16.869  31.421  19.277  1.00 20.00    -0.005 C 
ATOM     32 C32  LIG A   1      16.046  31.471  20.573  1.00 20.00    -0.039 C 
ATOM     33 C33  LIG A   1      14.672  30.789  20.489  1.00 20.00    -0.040 C 
ATOM     34 C34  LIG A   1      13.707  31.386  19.463  1.00 20.00    -0.008 C 
ATOM     35 N35  LIG A   1      13.315  32.754  19.782  1.00 20.00    -0.330 NA
ATOM     36 C36  LIG A   1      19.192  25.060  14.867  1.00 20.00    +0.004 A 
ATOM     37 C37  LIG A   1      20.479  24.758  14.386  1.00 20.00    +0.133 A 
ATOM     38 O38  LIG A   1      20.743  23.411  14.244  1.00 20.00    -0.456 OA
ATOM     39 C39  LIG A   1      21.947  21.762   9.451  1.00 20.00    +0.246 C 
ATOM     40 O40  LIG A   1      20.971  21.171   8.976  1.00 20.00    -0.273 OA
ATOM     41 C41  LIG A   1      23.399  21.186   9.219  1.00 20.00    +0.088 C 
ATOM     42 N42  LIG A   1      23.900  21.773   7.953  1.00 20.00    -0.320 NA
ATOM     43 O43  LIG A   1      21.507  23.609  12.717  1.00 20.00    -0.504 OA
ATOM     44 C44  LIG A   1      20.657  24.372  13.468  1.00 20.00    +0.161 A 
ATOM     45 C45  LIG A   1      19.413  23.901  13.879  1.00 20.00    -0.016 A 
ATOM     46 C46  LIG A   1      18.586  24.729  14.650  1.00 20.00    -0.055 A 
ATOM     47 C47  LIG A   1      19.005  26.016  15.006  1.00 20.00    -0.016 A 
ATOM     48 C48  LIG A   1      20.248  26.468  14.584  1.00 20.00    +0.161 A 
ATOM     49 O49  LIG A   1      20.658  27.724  14.928  1.00 20.00    -0.504 OA
ATOM     50 C50  LIG A   1      21.070  25.652  13.819  1.00 20.00    +0.200 A 
ATOM     51 O51  LIG A   1      22.292  26.124  13.417  1.00 20.00    -0.502 OA
ATOM     52 H52  LIG A   1      24.403  19.305   7.229  1.00 20.00    +0.023 H 
ATOM     53 H53  LIG A   1      24.499  17.920   8.306  1.00 20.00    +0.023 H 
ATOM     54 H54  LIG A   1      25.501  19.344   8.628  1.00 20.00    +0.023 H 
ATOM     55 H55  LIG A   1      22.446  19.283   8.684  1.00 20.00    +0.032 H 
ATOM     56 H56  LIG A   1      24.524  18.877  10.877  1.00 20.00    +0.032 H 
ATOM     57 H57  LIG A   1      23.193  17.828  10.434  1.00 20.00    +0.032 H 
ATOM     58 H58  LIG A   1      24.291  20.220  12.795  1.00 20.00    +0.063 H 
ATOM     59 H59  LIG A   1      22.979  21.922  13.953  1.00 20.00    +0.063 H 
ATOM     60 H60  LIG A   1      19.454  20.647  11.817  1.00 20.00    +0.063 H 
ATOM     61 H61  LIG A   1      20.740  18.879  10.740  1.00 20.00    +0.063 H 
ATOM     62 H62  LIG A   1      19.661  24.505  12.006  1.00 20.00    +0.072 H 
ATOM     63 H63  LIG A   1      22.595  24.470   9.091  1.00 20.00    +0.050 H 
ATOM     64 H64  LIG A   1      23.795  23.627  10.062  1.00 20.00    +0.050 H 
ATOM     65 H65  LIG A   1      21.707  25.571  11.208  1.00 20.00    +0.029 H 
ATOM     66 H66  LIG A   1      23.341  25.988  10.772  1.00 20.00    +0.029 H 
ATOM     67 H67  LIG A   1      23.007  23.688  12.689  1.00 20.00    +0.028 H 
ATOM     68 H68  LIG A   1      24.362  24.711  12.419  1.00 20.00    +0.028 H 
ATOM     69 H69  LIG A   1      23.261  26.594  13.444  1.00 20.00    +0.047 H 
ATOM     70 H70  LIG A   1      24.854  25.703  16.209  1.00 20.00    +0.296 HD
ATOM     71 H71  LIG A   1      21.581  27.939  13.958  1.00 20.00    +0.063 H 
ATOM     72 H72  LIG A   1      19.340  28.433  14.686  1.00 20.00    +0.064 H 
ATOM     73 H73  LIG A   1      17.064  25.840  15.996  1.00 20.00    +0.160 HD
ATOM     74 H74  LIG A   1      15.827  27.848  15.787  1.00 20.00    +0.049 H 
ATOM     75 H75  LIG A   1      17.186  28.664  15.052  1.00 20.00    +0.049 H 
ATOM     76 H76  LIG A   1      18.472  28.285  17.262  1.00 20.00    +0.030 H 
ATOM     77 H77  LIG A   1      17.006  27.586  17.930  1.00 20.00    +0.030 H 
ATOM     78 H78  LIG A   1      17.338  30.442  16.863  1.00 20.00    +0.043 H 
ATOM     79 H79  LIG A   1      15.785  29.764  17.408  1.00 20.00    +0.043 H 
ATOM     80 H80  LIG A   1      18.202  29.868  19.103  1.00 20.00    +0.122 HD
ATOM     81 H81  LIG A   1      16.331  31.929  18.471  1.00 20.00    +0.043 H 
ATOM     82 H82  LIG A   1      17.803  31.980  19.423  1.00 20.00    +0.043 H 
ATOM     83 H83  LIG A   1      15.926  32.519  20.878  1.00 20.00    +0.028 H 
ATOM     84 H84  LIG A   1      16.616  30.990  21.380  1.00 20.00    +0.028 H 
ATOM     85 H85  LIG A   1      14.205  30.819  21.481  1.00 20.00    +0.028 H 
ATOM     86 H86  LIG A   1      14.807  29.723  20.253  1.00 20.00    +0.028 H 
ATOM     87 H87  LIG A   1      12.802  30.769  19.432  1.00 20.00    +0.043 H 
ATOM     88 H88  LIG A   1      14.133  31.363  18.454  1.00 20.00    +0.043 H 
ATOM     89 H89  LIG A   1      14.133  33.356  19.843  1.00 20.00    +0.118 HD
ATOM     90 H90  LIG A   1      12.875  32.772  20.704  1.00 20.00    +0.118 HD
ATOM     91 H91  LIG A   1      18.521  24.236  15.098  1.00 20.00    +0.068 H 
ATOM     92 H92  LIG A   1      24.056  21.497  10.034  1.00 20.00    +0.057 H 
ATOM     93 H93  LIG A   1      23.823  22.783   7.952  1.00 20.00    +0.119 HD
ATOM     94 H94  LIG A   1      24.888  21.552   7.837  1.00 20.00    +0.119 HD
ATOM     95 H95  LIG A   1      21.093  22.738  12.584  1.00 20.00    +0.293 HD
ATOM     96 H96  LIG A   1      19.068  22.907  13.614  1.00 20.00    +0.066 H 
ATOM     97 H97  LIG A   1      17.612  24.372  14.976  1.00 20.00    +0.063 H 
ATOM     98 H98  LIG A   1      18.370  26.661  15.607  1.00 20.00    +0.066 H 
ATOM     99 H99  LIG A   1      21.527  27.820  14.493  1.00 20.00    +0.293 HD
ATOM    100 H100 LIG A   1      22.686  25.375  12.926  1.00 20.00    +0.293 HD
ENDROOT
TORSDOF 0
                                                                                                       
ENDMDL
MODEL 7
REMARK VINA RESULT:   -10.541      2.155      4.346
REMARK INTER + INTRA:         -10.541
REMARK INTER:                 -10.541
REMARK INTRA:                   0.000
REMARK UNBOUND:                 0.000
ROOT
ATOM      1 C1   LIG A   1      21.754  13.642   4.967  1.00 20.00    -0.060 C 
ATOM      2 C2   LIG A   1      21.549  14.429   6.275  1.00 20.00    -0.016 C 
ATOM      3 C3   LIG A   1      22.953  14.514   6.970  1.00 20.00    -0.023 C 
ATOM      4 C4   LIG A   1      23.002  15.469   8.129  1.00 20.00    -0.048 A 
ATOM      5 C5   LIG A   1      23.639  16.705   7.980  1.00 20.00    -0.058 A 
ATOM      6 C6   LIG A   1      23.266  17.768   8.793  1.00 20.00    -0.051 A 
ATOM      7 C7   LIG A   1      22.212  17.597   9.695  1.00 20.00    +0.017 A 
ATOM      8 C8   LIG A   1      21.821  16.301  10.048  1.00 20.00    -0.051 A 
ATOM      9 C9   LIG A   1      22.231  15.224   9.268  1.00 20.00    -0.058 A 
ATOM     10 C10  LIG A   1      21.363  18.748  10.064  1.00 20.00    +0.140 C 
ATOM     11 C11  LIG A   1      20.033  18.755   9.813  1.00 20.00    +0.047 C 
ATOM     12 C12  LIG A   1      19.268  17.879   8.864  1.00 20.00    +0.256 C 
ATOM     13 O13  LIG A   1      18.052  17.780   9.015  1.00 20.00    -0.269 OA
ATOM     14 N14  LIG A   1      19.927  17.608   7.667  1.00 20.00    -0.278 NA
ATOM     15 C15  LIG A   1      19.751  18.609   6.603  1.00 20.00    +0.029 C 
ATOM     16 C16  LIG A   1      19.928  20.097   6.997  1.00 20.00    -0.034 C 
ATOM     17 C17  LIG A   1      21.395  20.466   7.243  1.00 20.00    -0.034 C 
ATOM     18 C18  LIG A   1      21.642  21.765   8.034  1.00 20.00    +0.085 C 
ATOM     19 C19  LIG A   1      23.131  22.074   8.000  1.00 20.00    +0.311 C 
ATOM     20 O20  LIG A   1      24.044  21.378   8.416  1.00 20.00    -0.252 OA
ATOM     21 O21  LIG A   1      23.398  23.264   7.420  1.00 20.00    -0.481 OA
ATOM     22 C22  LIG A   1      21.113  21.910   9.460  1.00 20.00    +0.009 A 
ATOM     23 C23  LIG A   1      20.327  23.046   9.732  1.00 20.00    -0.052 A 
ATOM     24 C24  LIG A   1      19.875  23.345  11.025  1.00 20.00    -0.038 A 
ATOM     25 C25  LIG A   1      20.224  22.554  12.119  1.00 20.00    +0.038 A 
ATOM     26 N26  LIG A   1      19.769  22.767  13.417  1.00 20.00    -0.385 NA
ATOM     27 C27  LIG A   1      19.146  24.011  13.849  1.00 20.00    +0.016 C 
ATOM     28 C28  LIG A   1      20.182  25.112  14.069  1.00 20.00    -0.023 C 
ATOM     29 C29  LIG A   1      19.500  26.425  14.466  1.00 20.00    -0.003 C 
ATOM     30 N30  LIG A   1      20.508  27.431  14.804  1.00 20.00    -0.317 NA
ATOM     31 C31  LIG A   1      19.913  28.746  15.055  1.00 20.00    -0.005 C 
ATOM     32 C32  LIG A   1      20.427  29.324  16.382  1.00 20.00    -0.039 C 
ATOM     33 C33  LIG A   1      20.035  28.517  17.629  1.00 20.00    -0.040 C 
ATOM     34 C34  LIG A   1      18.532  28.397  17.884  1.00 20.00    -0.008 C 
ATOM     35 N35  LIG A   1      17.901  29.678  18.178  1.00 20.00    -0.330 NA
ATOM     36 C36  LIG A   1      20.971  21.402  11.855  1.00 20.00    +0.004 A 
ATOM     37 C37  LIG A   1      21.396  21.073  10.555  1.00 20.00    +0.133 A 
ATOM     38 O38  LIG A   1      22.083  19.880  10.454  1.00 20.00    -0.456 OA
ATOM     39 C39  LIG A   1      20.007  16.247   7.351  1.00 20.00    +0.246 C 
ATOM     40 O40  LIG A   1      19.480  15.376   8.052  1.00 20.00    -0.273 OA
ATOM     41 C41  LIG A   1      20.826  15.826   6.067  1.00 20.00    +0.088 C 
ATOM     42 N42  LIG A   1      19.865  15.768   4.940  1.00 20.00    -0.320 NA
ATOM     43 O43  LIG A   1      21.250  19.393   9.030  1.00 20.00    -0.504 OA
ATOM     44 C44  LIG A   1      21.007  20.309  10.016  1.00 20.00    +0.161 A 
ATOM     45 C45  LIG A   1      20.933  19.946  11.358  1.00 20.00    -0.016 A 
ATOM     46 C46  LIG A   1      20.683  20.932  12.322  1.00 20.00    -0.055 A 
ATOM     47 C47  LIG A   1      20.512  22.268  11.944  1.00 20.00    -0.016 A 
ATOM     48 C48  LIG A   1      20.587  22.609  10.600  1.00 20.00    +0.161 A 
ATOM     49 O49  LIG A   1      20.418  23.911  10.228  1.00 20.00    -0.504 OA
ATOM     50 C50  LIG A   1      20.833  21.636   9.640  1.00 20.00    +0.200 A 
ATOM     51 O51  LIG A   1      20.902  22.003   8.322  1.00 20.00    -0.502 OA
ATOM     52 H52  LIG A   1      20.796  13.356   4.517  1.00 20.00    +0.023 H 
ATOM     53 H53  LIG A   1      22.303  12.713   5.153  1.00 20.00    +0.023 H 
ATOM     54 H54  LIG A   1      22.322  14.226   4.234  1.00 20.00    +0.023 H 
ATOM     55 H55  LIG A   1      20.912  13.802   6.912  1.00 20.00    +0.032 H 
ATOM     56 H56  LIG A   1      23.705  14.811   6.227  1.00 20.00    +0.032 H 
ATOM     57 H57  LIG A   1      23.255  13.517   7.318  1.00 20.00    +0.032 H 
ATOM     58 H58  LIG A   1      24.321  16.885   7.154  1.00 20.00    +0.063 H 
ATOM     59 H59  LIG A   1      23.688  18.749   8.597  1.00 20.00    +0.063 H 
ATOM     60 H60  LIG A   1      21.059  16.136  10.805  1.00 20.00    +0.063 H 
ATOM     61 H61  LIG A   1      21.771  14.252   9.434  1.00 20.00    +0.063 H 
ATOM     62 H62  LIG A   1      19.401  19.569  10.155  1.00 20.00    +0.072 H 
ATOM     63 H63  LIG A   1      18.731  18.478   6.222  1.00 20.00    +0.050 H 
ATOM     64 H64  LIG A   1      20.430  18.392   5.774  1.00 20.00    +0.050 H 
ATOM     65 H65  LIG A   1      19.291  20.357   7.847  1.00 20.00    +0.029 H 
ATOM     66 H66  LIG A   1      19.564  20.712   6.163  1.00 20.00    +0.029 H 
ATOM     67 H67  LIG A   1      21.919  19.642   7.708  1.00 20.00    +0.028 H 
ATOM     68 H68  LIG A   1      21.878  20.565   6.258  1.00 20.00    +0.028 H 
ATOM     69 H69  LIG A   1      21.161  22.545   7.428  1.00 20.00    +0.047 H 
ATOM     70 H70  LIG A   1      24.372  23.358   7.509  1.00 20.00    +0.296 HD
ATOM     71 H71  LIG A   1      20.058  23.736   8.932  1.00 20.00    +0.063 H 
ATOM     72 H72  LIG A   1      19.256  24.228  11.148  1.00 20.00    +0.064 H 
ATOM     73 H73  LIG A   1      20.374  22.354  14.123  1.00 20.00    +0.160 HD
ATOM     74 H74  LIG A   1      18.637  23.813  14.800  1.00 20.00    +0.049 H 
ATOM     75 H75  LIG A   1      18.363  24.327  13.153  1.00 20.00    +0.049 H 
ATOM     76 H76  LIG A   1      20.772  25.264  13.158  1.00 20.00    +0.030 H 
ATOM     77 H77  LIG A   1      20.888  24.804  14.849  1.00 20.00    +0.030 H 
ATOM     78 H78  LIG A   1      18.874  26.771  13.633  1.00 20.00    +0.043 H 
ATOM     79 H79  LIG A   1      18.848  26.256  15.336  1.00 20.00    +0.043 H 
ATOM     80 H80  LIG A   1      21.196  27.500  14.045  1.00 20.00    +0.122 HD
ATOM     81 H81  LIG A   1      18.819  28.714  15.059  1.00 20.00    +0.043 H 
ATOM     82 H82  LIG A   1      20.197  29.421  14.237  1.00 20.00    +0.043 H 
ATOM     83 H83  LIG A   1      20.076  30.359  16.480  1.00 20.00    +0.028 H 
ATOM     84 H84  LIG A   1      21.524  29.386  16.347  1.00 20.00    +0.028 H 
ATOM     85 H85  LIG A   1      20.512  28.974  18.506  1.00 20.00    +0.028 H 
ATOM     86 H86  LIG A   1      20.454  27.502  17.555  1.00 20.00    +0.028 H 
ATOM     87 H87  LIG A   1      18.374  27.733  18.742  1.00 20.00    +0.043 H 
ATOM     88 H88  LIG A   1      18.019  27.932  17.035  1.00 20.00    +0.043 H 
ATOM     89 H89  LIG A   1      18.046  30.332  17.411  1.00 20.00    +0.118 HD
ATOM     90 H90  LIG A   1      18.346  30.093  18.998  1.00 20.00    +0.118 HD
ATOM     91 H91  LIG A   1      21.218  20.721  12.666  1.00 20.00    +0.068 H 
ATOM     92 H92  LIG A   1      21.581  16.583   5.845  1.00 20.00    +0.057 H 
ATOM     93 H93  LIG A   1      19.330  16.625   4.859  1.00 20.00    +0.119 HD
ATOM     94 H94  LIG A   1      20.368  15.651   4.062  1.00 20.00    +0.119 HD
ATOM     95 H95  LIG A   1      21.381  18.525   9.451  1.00 20.00    +0.293 HD
ATOM     96 H96  LIG A   1      21.061  18.916  11.673  1.00 20.00    +0.066 H 
ATOM     97 H97  LIG A   1      20.623  20.659  13.373  1.00 20.00    +0.063 H 
ATOM     98 H98  LIG A   1      20.323  23.037  12.687  1.00 20.00    +0.066 H 
ATOM     99 H99  LIG A   1      20.478  23.892   9.253  1.00 20.00    +0.293 HD
ATOM    100 H100 LIG A   1      21.106  21.167   7.854  1.00 20.00    +0.293 HD
ENDROOT
TORSDOF 0
                                                                                                       
ENDMDL
MODEL 8
REMARK VINA RESULT:   -10.501      3.729     11.151
REMARK INTER + INTRA:         -10.501
REMARK INTER:                 -10.501
REMARK INTRA:                   0.000
REMARK UNBOUND:                 0.000
ROOT
ATOM      1 C1   LIG A   1      22.532  30.155  15.431  1.00 20.00    -0.060 C 
ATOM      2 C2   LIG A   1      21.853  29.029  14.628  1.00 20.00    -0.016 C 
ATOM      3 C3   LIG A   1      22.420  29.117  13.168  1.00 20.00    -0.023 C 
ATOM      4 C4   LIG A   1      22.071  27.937  12.306  1.00 20.00    -0.048 A 
ATOM      5 C5   LIG A   1      23.048  26.979  12.015  1.00 20.00    -0.058 A 
ATOM      6 C6   LIG A   1      22.662  25.684  11.697  1.00 20.00    -0.051 A 
ATOM      7 C7   LIG A   1      21.306  25.348  11.744  1.00 20.00    +0.017 A 
ATOM      8 C8   LIG A   1      20.349  26.369  11.716  1.00 20.00    -0.051 A 
ATOM      9 C9   LIG A   1      20.736  27.678  11.985  1.00 20.00    -0.058 A 
ATOM     10 C10  LIG A   1      20.898  23.967  12.077  1.00 20.00    +0.140 C 
ATOM     11 C11  LIG A   1      20.137  23.697  13.162  1.00 20.00    +0.047 C 
ATOM     12 C12  LIG A   1      19.888  24.572  14.356  1.00 20.00    +0.256 C 
ATOM     13 O13  LIG A   1      18.915  24.324  15.067  1.00 20.00    -0.269 OA
ATOM     14 N14  LIG A   1      20.996  25.299  14.782  1.00 20.00    -0.278 NA
ATOM     15 C15  LIG A   1      21.899  24.598  15.709  1.00 20.00    +0.029 C 
ATOM     16 C16  LIG A   1      22.308  23.150  15.337  1.00 20.00    -0.034 C 
ATOM     17 C17  LIG A   1      23.302  23.105  14.171  1.00 20.00    -0.034 C 
ATOM     18 C18  LIG A   1      23.443  21.748  13.455  1.00 20.00    +0.085 C 
ATOM     19 C19  LIG A   1      24.606  21.837  12.479  1.00 20.00    +0.311 C 
ATOM     20 O20  LIG A   1      24.729  22.605  11.537  1.00 20.00    -0.252 OA
ATOM     21 O21  LIG A   1      25.581  20.943  12.754  1.00 20.00    -0.481 OA
ATOM     22 C22  LIG A   1      22.236  21.111  12.769  1.00 20.00    +0.009 A 
ATOM     23 C23  LIG A   1      21.928  19.786  13.130  1.00 20.00    -0.052 A 
ATOM     24 C24  LIG A   1      20.912  19.058  12.493  1.00 20.00    -0.038 A 
ATOM     25 C25  LIG A   1      20.186  19.599  11.432  1.00 20.00    +0.038 A 
ATOM     26 N26  LIG A   1      19.135  18.950  10.792  1.00 20.00    -0.385 NA
ATOM     27 C27  LIG A   1      18.877  17.522  10.927  1.00 20.00    +0.016 C 
ATOM     28 C28  LIG A   1      19.851  16.694  10.092  1.00 20.00    -0.023 C 
ATOM     29 C29  LIG A   1      19.601  15.197  10.295  1.00 20.00    -0.003 C 
ATOM     30 N30  LIG A   1      20.447  14.419   9.389  1.00 20.00    -0.317 NA
ATOM     31 C31  LIG A   1      20.349  12.979   9.640  1.00 20.00    -0.005 C 
ATOM     32 C32  LIG A   1      20.081  12.223   8.330  1.00 20.00    -0.039 C 
ATOM     33 C33  LIG A   1      18.740  12.554   7.659  1.00 20.00    -0.040 C 
ATOM     34 C34  LIG A   1      17.496  12.228   8.487  1.00 20.00    -0.008 C 
ATOM     35 N35  LIG A   1      17.334  10.800   8.731  1.00 20.00    -0.330 NA
ATOM     36 C36  LIG A   1      20.456  20.928  11.092  1.00 20.00    +0.004 A 
ATOM     37 C37  LIG A   1      21.446  21.678  11.751  1.00 20.00    +0.133 A 
ATOM     38 O38  LIG A   1      21.558  22.988  11.330  1.00 20.00    -0.456 OA
ATOM     39 C39  LIG A   1      20.762  26.672  14.927  1.00 20.00    +0.246 C 
ATOM     40 O40  LIG A   1      19.646  27.171  14.746  1.00 20.00    -0.273 OA
ATOM     41 C41  LIG A   1      21.983  27.600  15.305  1.00 20.00    +0.088 C 
ATOM     42 N42  LIG A   1      22.002  27.710  16.784  1.00 20.00    -0.320 NA
ATOM     43 O43  LIG A   1      21.699  23.606  12.929  1.00 20.00    -0.504 OA
ATOM     44 C44  LIG A   1      21.241  22.435  12.392  1.00 20.00    +0.161 A 
ATOM     45 C45  LIG A   1      20.219  22.407  11.446  1.00 20.00    -0.016 A 
ATOM     46 C46  LIG A   1      19.796  21.174  10.931  1.00 20.00    -0.055 A 
ATOM     47 C47  LIG A   1      20.393  19.983  11.359  1.00 20.00    -0.016 A 
ATOM     48 C48  LIG A   1      21.408  20.032  12.305  1.00 20.00    +0.161 A 
ATOM     49 O49  LIG A   1      21.990  18.872  12.725  1.00 20.00    -0.504 OA
ATOM     50 C50  LIG A   1      21.831  21.251  12.819  1.00 20.00    +0.200 A 
ATOM     51 O51  LIG A   1      22.836  21.269  13.751  1.00 20.00    -0.502 OA
ATOM     52 H52  LIG A   1      22.048  30.302  16.403  1.00 20.00    +0.023 H 
ATOM     53 H53  LIG A   1      22.463  31.110  14.898  1.00 20.00    +0.023 H 
ATOM     54 H54  LIG A   1      23.594  29.942  15.599  1.00 20.00    +0.023 H 
ATOM     55 H55  LIG A   1      20.788  29.291  14.575  1.00 20.00    +0.032 H 
ATOM     56 H56  LIG A   1      23.513  29.219  13.211  1.00 20.00    +0.032 H 
ATOM     57 H57  LIG A   1      22.055  30.032  12.682  1.00 20.00    +0.032 H 
ATOM     58 H58  LIG A   1      24.102  27.195  12.165  1.00 20.00    +0.063 H 
ATOM     59 H59  LIG A   1      23.427  24.924  11.579  1.00 20.00    +0.063 H 
ATOM     60 H60  LIG A   1      19.288  26.138  11.672  1.00 20.00    +0.063 H 
ATOM     61 H61  LIG A   1      19.965  28.429  12.151  1.00 20.00    +0.063 H 
ATOM     62 H62  LIG A   1      19.777  22.692  13.359  1.00 20.00    +0.072 H 
ATOM     63 H63  LIG A   1      21.384  24.567  16.677  1.00 20.00    +0.050 H 
ATOM     64 H64  LIG A   1      22.810  25.184  15.853  1.00 20.00    +0.050 H 
ATOM     65 H65  LIG A   1      21.428  22.529  15.150  1.00 20.00    +0.029 H 
ATOM     66 H66  LIG A   1      22.798  22.703  16.212  1.00 20.00    +0.029 H 
ATOM     67 H67  LIG A   1      23.078  23.883  13.454  1.00 20.00    +0.028 H 
ATOM     68 H68  LIG A   1      24.288  23.389  14.571  1.00 20.00    +0.028 H 
ATOM     69 H69  LIG A   1      23.768  21.059  14.246  1.00 20.00    +0.047 H 
ATOM     70 H70  LIG A   1      26.233  21.074  12.032  1.00 20.00    +0.296 HD
ATOM     71 H71  LIG A   1      22.489  19.283  13.918  1.00 20.00    +0.063 H 
ATOM     72 H72  LIG A   1      20.722  18.049  12.844  1.00 20.00    +0.064 H 
ATOM     73 H73  LIG A   1      18.963  19.302   9.853  1.00 20.00    +0.160 HD
ATOM     74 H74  LIG A   1      17.859  17.334  10.568  1.00 20.00    +0.049 H 
ATOM     75 H75  LIG A   1      18.884  17.214  11.978  1.00 20.00    +0.049 H 
ATOM     76 H76  LIG A   1      20.885  16.935  10.365  1.00 20.00    +0.030 H 
ATOM     77 H77  LIG A   1      19.742  16.954   9.032  1.00 20.00    +0.030 H 
ATOM     78 H78  LIG A   1      19.813  14.935  11.340  1.00 20.00    +0.043 H 
ATOM     79 H79  LIG A   1      18.545  14.967  10.093  1.00 20.00    +0.043 H 
ATOM     80 H80  LIG A   1      21.424  14.723   9.482  1.00 20.00    +0.122 HD
ATOM     81 H81  LIG A   1      19.577  12.738  10.377  1.00 20.00    +0.043 H 
ATOM     82 H82  LIG A   1      21.300  12.633  10.066  1.00 20.00    +0.043 H 
ATOM     83 H83  LIG A   1      20.147  11.144   8.523  1.00 20.00    +0.028 H 
ATOM     84 H84  LIG A   1      20.885  12.446   7.615  1.00 20.00    +0.028 H 
ATOM     85 H85  LIG A   1      18.685  12.018   6.703  1.00 20.00    +0.028 H 
ATOM     86 H86  LIG A   1      18.713  13.624   7.405  1.00 20.00    +0.028 H 
ATOM     87 H87  LIG A   1      16.612  12.586   7.947  1.00 20.00    +0.043 H 
ATOM     88 H88  LIG A   1      17.507  12.756   9.447  1.00 20.00    +0.043 H 
ATOM     89 H89  LIG A   1      18.149  10.425   9.212  1.00 20.00    +0.118 HD
ATOM     90 H90  LIG A   1      17.277  10.310   7.837  1.00 20.00    +0.118 HD
ATOM     91 H91  LIG A   1      19.875  21.414  10.311  1.00 20.00    +0.068 H 
ATOM     92 H92  LIG A   1      22.916  27.139  14.976  1.00 20.00    +0.057 H 
ATOM     93 H93  LIG A   1      21.989  26.799  17.227  1.00 20.00    +0.119 HD
ATOM     94 H94  LIG A   1      22.858  28.172  17.085  1.00 20.00    +0.119 HD
ATOM     95 H95  LIG A   1      21.215  24.339  12.509  1.00 20.00    +0.293 HD
ATOM     96 H96  LIG A   1      19.742  23.317  11.102  1.00 20.00    +0.066 H 
ATOM     97 H97  LIG A   1      18.998  21.141  10.193  1.00 20.00    +0.063 H 
ATOM     98 H98  LIG A   1      20.071  19.026  10.960  1.00 20.00    +0.066 H 
ATOM     99 H99  LIG A   1      22.635  19.158  13.401  1.00 20.00    +0.293 HD
ATOM    100 H100 LIG A   1      22.970  22.221  13.935  1.00 20.00    +0.293 HD
ENDROOT
TORSDOF 0
                                                                                                       
ENDMDL
MODEL 9
REMARK VINA RESULT:    -9.935      7.116     13.392
REMARK INTER + INTRA:          -9.935
REMARK INTER:                  -9.935
REMARK INTRA:                   0.000
REMARK UNBOUND:                 0.000
ROOT
ATOM      1 C1   LIG A   1      16.137  29.807  20.092  1.00 20.00    -0.060 C 
ATOM      2 C2   LIG A   1      16.943  29.927  18.785  1.00 20.00    -0.016 C 
ATOM      3 C3   LIG A   1      18.447  30.091  19.201  1.00 20.00    -0.023 C 
ATOM      4 C4   LIG A   1      19.413  29.961  18.057  1.00 20.00    -0.048 A 
ATOM      5 C5   LIG A   1      20.172  28.794  17.923  1.00 20.00    -0.058 A 
ATOM      6 C6   LIG A   1      20.647  28.428  16.671  1.00 20.00    -0.051 A 
ATOM      7 C7   LIG A   1      20.294  29.197  15.558  1.00 20.00    +0.017 A 
ATOM      8 C8   LIG A   1      19.823  30.500  15.753  1.00 20.00    -0.051 A 
ATOM      9 C9   LIG A   1      19.392  30.893  17.016  1.00 20.00    -0.058 A 
ATOM     10 C10  LIG A   1      20.173  28.562  14.229  1.00 20.00    +0.140 C 
ATOM     11 C11  LIG A   1      19.005  28.566  13.548  1.00 20.00    +0.047 C 
ATOM     12 C12  LIG A   1      17.626  28.832  14.079  1.00 20.00    +0.256 C 
ATOM     13 O13  LIG A   1      16.743  29.137  13.280  1.00 20.00    -0.269 OA
ATOM     14 N14  LIG A   1      17.381  28.302  15.343  1.00 20.00    -0.278 NA
ATOM     15 C15  LIG A   1      16.927  26.903  15.370  1.00 20.00    +0.029 C 
ATOM     16 C16  LIG A   1      17.710  25.889  14.497  1.00 20.00    -0.034 C 
ATOM     17 C17  LIG A   1      19.089  25.560  15.079  1.00 20.00    -0.034 C 
ATOM     18 C18  LIG A   1      20.098  24.918  14.107  1.00 20.00    +0.085 C 
ATOM     19 C19  LIG A   1      21.318  24.477  14.901  1.00 20.00    +0.311 C 
ATOM     20 O20  LIG A   1      22.062  25.177  15.570  1.00 20.00    -0.252 OA
ATOM     21 O21  LIG A   1      21.534  23.146  14.818  1.00 20.00    -0.481 OA
ATOM     22 C22  LIG A   1      20.537  25.666  12.850  1.00 20.00    +0.009 A 
ATOM     23 C23  LIG A   1      20.406  24.981  11.626  1.00 20.00    -0.052 A 
ATOM     24 C24  LIG A   1      20.874  25.520  10.419  1.00 20.00    -0.038 A 
ATOM     25 C25  LIG A   1      21.539  26.745  10.378  1.00 20.00    +0.038 A 
ATOM     26 N26  LIG A   1      21.983  27.356   9.209  1.00 20.00    -0.385 NA
ATOM     27 C27  LIG A   1      22.099  26.655   7.937  1.00 20.00    +0.016 C 
ATOM     28 C28  LIG A   1      23.337  25.763   7.899  1.00 20.00    -0.023 C 
ATOM     29 C29  LIG A   1      23.409  24.992   6.577  1.00 20.00    -0.003 C 
ATOM     30 N30  LIG A   1      24.666  24.246   6.498  1.00 20.00    -0.317 NA
ATOM     31 C31  LIG A   1      24.722  23.382   5.316  1.00 20.00    -0.005 C 
ATOM     32 C32  LIG A   1      26.036  23.602   4.552  1.00 20.00    -0.039 C 
ATOM     33 C33  LIG A   1      26.209  25.010   3.964  1.00 20.00    -0.040 C 
ATOM     34 C34  LIG A   1      25.157  25.424   2.935  1.00 20.00    -0.008 C 
ATOM     35 N35  LIG A   1      25.199  24.615   1.722  1.00 20.00    -0.330 NA
ATOM     36 C36  LIG A   1      21.639  27.451  11.580  1.00 20.00    +0.004 A 
ATOM     37 C37  LIG A   1      21.138  26.937  12.790  1.00 20.00    +0.133 A 
ATOM     38 O38  LIG A   1      21.273  27.777  13.877  1.00 20.00    -0.456 OA
ATOM     39 C39  LIG A   1      16.877  29.226  16.266  1.00 20.00    +0.246 C 
ATOM     40 O40  LIG A   1      16.619  30.394  15.954  1.00 20.00    -0.273 OA
ATOM     41 C41  LIG A   1      16.663  28.750  17.757  1.00 20.00    +0.088 C 
ATOM     42 N42  LIG A   1      15.265  28.270  17.863  1.00 20.00    -0.320 NA
ATOM     43 O43  LIG A   1      19.684  27.464  14.456  1.00 20.00    -0.504 OA
ATOM     44 C44  LIG A   1      20.315  27.300  13.254  1.00 20.00    +0.161 A 
ATOM     45 C45  LIG A   1      20.914  28.364  12.585  1.00 20.00    -0.016 A 
ATOM     46 C46  LIG A   1      21.548  28.133  11.357  1.00 20.00    -0.055 A 
ATOM     47 C47  LIG A   1      21.581  26.846  10.806  1.00 20.00    -0.016 A 
ATOM     48 C48  LIG A   1      20.974  25.799  11.487  1.00 20.00    +0.161 A 
ATOM     49 O49  LIG A   1      21.004  24.544  10.952  1.00 20.00    -0.504 OA
ATOM     50 C50  LIG A   1      20.345  26.023  12.704  1.00 20.00    +0.200 A 
ATOM     51 O51  LIG A   1      19.755  24.971  13.354  1.00 20.00    -0.502 OA
ATOM     52 H52  LIG A   1      15.060  29.895  19.908  1.00 20.00    +0.023 H 
ATOM     53 H53  LIG A   1      16.403  30.609  20.789  1.00 20.00    +0.023 H 
ATOM     54 H54  LIG A   1      16.327  28.851  20.593  1.00 20.00    +0.023 H 
ATOM     55 H55  LIG A   1      16.633  30.872  18.320  1.00 20.00    +0.032 H 
ATOM     56 H56  LIG A   1      18.693  29.343  19.966  1.00 20.00    +0.032 H 
ATOM     57 H57  LIG A   1      18.594  31.068  19.680  1.00 20.00    +0.032 H 
ATOM     58 H58  LIG A   1      20.283  28.103  18.754  1.00 20.00    +0.063 H 
ATOM     59 H59  LIG A   1      21.141  27.468  16.558  1.00 20.00    +0.063 H 
ATOM     60 H60  LIG A   1      19.615  31.150  14.907  1.00 20.00    +0.063 H 
ATOM     61 H61  LIG A   1      18.853  31.833  17.118  1.00 20.00    +0.063 H 
ATOM     62 H62  LIG A   1      18.941  28.166  12.540  1.00 20.00    +0.072 H 
ATOM     63 H63  LIG A   1      15.884  26.910  15.028  1.00 20.00    +0.050 H 
ATOM     64 H64  LIG A   1      16.920  26.534  16.398  1.00 20.00    +0.050 H 
ATOM     65 H65  LIG A   1      17.773  26.230  13.460  1.00 20.00    +0.029 H 
ATOM     66 H66  LIG A   1      17.131  24.957  14.461  1.00 20.00    +0.029 H 
ATOM     67 H67  LIG A   1      19.523  26.436  15.540  1.00 20.00    +0.028 H 
ATOM     68 H68  LIG A   1      18.932  24.868  15.921  1.00 20.00    +0.028 H 
ATOM     69 H69  LIG A   1      19.604  23.993  13.779  1.00 20.00    +0.047 H 
ATOM     70 H70  LIG A   1      22.364  23.009  15.324  1.00 20.00    +0.296 HD
ATOM     71 H71  LIG A   1      19.941  23.996  11.592  1.00 20.00    +0.063 H 
ATOM     72 H72  LIG A   1      20.716  24.938   9.516  1.00 20.00    +0.064 H 
ATOM     73 H73  LIG A   1      22.733  28.024   9.370  1.00 20.00    +0.160 HD
ATOM     74 H74  LIG A   1      22.188  27.413   7.149  1.00 20.00    +0.049 H 
ATOM     75 H75  LIG A   1      21.189  26.092   7.708  1.00 20.00    +0.049 H 
ATOM     76 H76  LIG A   1      23.322  25.056   8.737  1.00 20.00    +0.030 H 
ATOM     77 H77  LIG A   1      24.238  26.375   8.026  1.00 20.00    +0.030 H 
ATOM     78 H78  LIG A   1      22.551  24.309   6.512  1.00 20.00    +0.043 H 
ATOM     79 H79  LIG A   1      23.349  25.695   5.734  1.00 20.00    +0.043 H 
ATOM     80 H80  LIG A   1      24.788  23.682   7.348  1.00 20.00    +0.122 HD
ATOM     81 H81  LIG A   1      23.869  23.535   4.648  1.00 20.00    +0.043 H 
ATOM     82 H82  LIG A   1      24.670  22.335   5.646  1.00 20.00    +0.043 H 
ATOM     83 H83  LIG A   1      26.113  22.851   3.754  1.00 20.00    +0.028 H 
ATOM     84 H84  LIG A   1      26.881  23.406   5.226  1.00 20.00    +0.028 H 
ATOM     85 H85  LIG A   1      27.205  25.079   3.506  1.00 20.00    +0.028 H 
ATOM     86 H86  LIG A   1      26.202  25.750   4.779  1.00 20.00    +0.028 H 
ATOM     87 H87  LIG A   1      25.331  26.469   2.655  1.00 20.00    +0.043 H 
ATOM     88 H88  LIG A   1      24.147  25.382   3.358  1.00 20.00    +0.043 H 
ATOM     89 H89  LIG A   1      25.063  23.631   1.944  1.00 20.00    +0.118 HD
ATOM     90 H90  LIG A   1      26.125  24.690   1.300  1.00 20.00    +0.118 HD
ATOM     91 H91  LIG A   1      22.096  28.438  11.590  1.00 20.00    +0.068 H 
ATOM     92 H92  LIG A   1      17.337  27.921  17.982  1.00 20.00    +0.057 H 
ATOM     93 H93  LIG A   1      15.049  27.585  17.148  1.00 20.00    +0.119 HD
ATOM     94 H94  LIG A   1      15.124  27.812  18.762  1.00 20.00    +0.119 HD
ATOM     95 H95  LIG A   1      19.777  28.396  14.721  1.00 20.00    +0.293 HD
ATOM     96 H96  LIG A   1      20.900  29.369  12.993  1.00 20.00    +0.066 H 
ATOM     97 H97  LIG A   1      22.018  28.957  10.825  1.00 20.00    +0.063 H 
ATOM     98 H98  LIG A   1      22.074  26.661   9.857  1.00 20.00    +0.066 H 
ATOM     99 H99  LIG A   1      20.492  24.002  11.583  1.00 20.00    +0.293 HD
ATOM    100 H100 LIG A   1      19.411  25.366  14.180  1.00 20.00    +0.293 HD
ENDROOT
TORSDOF 0
                                                                                                       
ENDMDL
