ROOT
ATOM      1 N1   LIG A   1     -14.186   0.888  -1.604  1.00 20.00    -0.330 NA
ATOM      2 C2   LIG A   1     -12.968   1.342  -2.267  1.00 20.00    -0.008 C 
ATOM      3 C3   LIG A   1     -11.828   0.344  -2.065  1.00 20.00    -0.040 C 
ATOM      4 C4   LIG A   1     -10.549   0.819  -2.763  1.00 20.00    -0.039 C 
ATOM      5 C5   LIG A   1      -9.396  -0.182  -2.643  1.00 20.00    -0.005 C 
ATOM      6 N6   LIG A   1      -8.992  -0.355  -1.247  1.00 20.00    -0.317 NA
ATOM      7 C7   LIG A   1      -7.900  -1.327  -1.133  1.00 20.00    -0.003 C 
ATOM      8 C8   LIG A   1      -7.508  -1.491   0.338  1.00 20.00    -0.023 C 
ATOM      9 C9   LIG A   1      -6.456  -2.584   0.534  1.00 20.00    +0.016 C 
ATOM     10 N10  LIG A   1      -5.196  -2.241  -0.117  1.00 20.00    -0.385 NA
ATOM     11 C11  LIG A   1      -4.172  -1.585   0.567  1.00 20.00    +0.034 A 
ATOM     12 C12  LIG A   1      -4.353  -0.858   1.746  1.00 20.00    -0.038 A 
ATOM     13 C13  LIG A   1      -3.289  -0.172   2.353  1.00 20.00    -0.049 A 
ATOM     14 C14  LIG A   1      -2.012  -0.169   1.783  1.00 20.00    +0.017 A 
ATOM     15 C15  LIG A   1      -0.903   0.532   2.428  1.00 20.00    +0.134 A 
ATOM     16 C16  LIG A   1      -0.768   1.272   3.586  1.00 20.00    -0.015 A 
ATOM     17 C17  LIG A   1       0.590   1.668   3.662  1.00 20.00    -0.015 A 
ATOM     18 C18  LIG A   1       1.218   1.156   2.545  1.00 20.00    +0.134 A 
ATOM     19 C19  LIG A   1       2.585   1.188   2.033  1.00 20.00    +0.017 A 
ATOM     20 C20  LIG A   1       3.639   1.641   2.833  1.00 20.00    -0.049 A 
ATOM     21 C21  LIG A   1       4.956   1.672   2.346  1.00 20.00    -0.038 A 
ATOM     22 C22  LIG A   1       5.259   1.282   1.040  1.00 20.00    +0.034 A 
ATOM     23 N23  LIG A   1       6.549   1.225   0.521  1.00 20.00    -0.385 NA
ATOM     24 C24  LIG A   1       7.680   1.909   1.141  1.00 20.00    +0.016 C 
ATOM     25 C25  LIG A   1       8.417   0.984   2.111  1.00 20.00    -0.023 C 
ATOM     26 C26  LIG A   1       9.150  -0.165   1.412  1.00 20.00    -0.003 C 
ATOM     27 N27  LIG A   1      10.302   0.335   0.650  1.00 20.00    -0.317 NA
ATOM     28 C28  LIG A   1      10.955  -0.723  -0.124  1.00 20.00    -0.005 C 
ATOM     29 C29  LIG A   1      10.190  -1.137  -1.388  1.00 20.00    -0.039 C 
ATOM     30 C30  LIG A   1       9.956   0.030  -2.355  1.00 20.00    -0.040 C 
ATOM     31 C31  LIG A   1       9.152  -0.362  -3.597  1.00 20.00    -0.008 C 
ATOM     32 N32  LIG A   1       9.844  -1.318  -4.453  1.00 20.00    -0.330 NA
ATOM     33 C33  LIG A   1       4.204   0.797   0.256  1.00 20.00    -0.038 A 
ATOM     34 C34  LIG A   1       2.889   0.759   0.737  1.00 20.00    -0.049 A 
ATOM     35 O35  LIG A   1       0.306   0.468   1.794  1.00 20.00    -0.456 OA
ATOM     36 C36  LIG A   1      -1.837  -0.855   0.577  1.00 20.00    -0.049 A 
ATOM     37 C37  LIG A   1      -2.903  -1.539  -0.024  1.00 20.00    -0.038 A 
ATOM     38 O38  LIG A   1       2.370   0.117   0.577  1.00 20.00    -0.504 OA
ATOM     39 C39  LIG A   1       1.086  -0.140   0.182  1.00 20.00    +0.161 A 
ATOM     40 C40  LIG A   1       0.723  -1.346  -0.408  1.00 20.00    -0.016 A 
ATOM     41 C41  LIG A   1      -0.609  -1.549  -0.790  1.00 20.00    -0.055 A 
ATOM     42 C42  LIG A   1      -1.567  -0.551  -0.582  1.00 20.00    -0.016 A 
ATOM     43 C43  LIG A   1      -1.185   0.647   0.008  1.00 20.00    +0.161 A 
ATOM     44 O44  LIG A   1      -2.117   1.622   0.213  1.00 20.00    -0.504 OA
ATOM     45 C45  LIG A   1       0.134   0.853   0.389  1.00 20.00    +0.200 A 
ATOM     46 O46  LIG A   1       0.483   2.042   0.969  1.00 20.00    -0.502 OA
ATOM     47 H47  LIG A   1     -14.443  -0.031  -1.963  1.00 20.00    +0.118 HD
ATOM     48 H48  LIG A   1     -13.997   0.751  -0.611  1.00 20.00    +0.118 HD
ATOM     49 H49  LIG A   1     -12.689   2.323  -1.865  1.00 20.00    +0.043 H 
ATOM     50 H50  LIG A   1     -13.174   1.474  -3.334  1.00 20.00    +0.043 H 
ATOM     51 H51  LIG A   1     -12.119  -0.636  -2.464  1.00 20.00    +0.028 H 
ATOM     52 H52  LIG A   1     -11.643   0.214  -0.992  1.00 20.00    +0.028 H 
ATOM     53 H53  LIG A   1     -10.757   0.978  -3.828  1.00 20.00    +0.028 H 
ATOM     54 H54  LIG A   1     -10.242   1.790  -2.354  1.00 20.00    +0.028 H 
ATOM     55 H55  LIG A   1      -8.550   0.185  -3.235  1.00 20.00    +0.043 H 
ATOM     56 H56  LIG A   1      -9.710  -1.143  -3.069  1.00 20.00    +0.043 H 
ATOM     57 H57  LIG A   1      -8.678   0.542  -0.874  1.00 20.00    +0.122 HD
ATOM     58 H58  LIG A   1      -7.035  -0.990  -1.716  1.00 20.00    +0.043 H 
ATOM     59 H59  LIG A   1      -8.224  -2.295  -1.532  1.00 20.00    +0.043 H 
ATOM     60 H60  LIG A   1      -7.150  -0.533   0.732  1.00 20.00    +0.030 H 
ATOM     61 H61  LIG A   1      -8.397  -1.764   0.922  1.00 20.00    +0.030 H 
ATOM     62 H62  LIG A   1      -6.313  -2.799   1.600  1.00 20.00    +0.049 H 
ATOM     63 H63  LIG A   1      -6.827  -3.516   0.091  1.00 20.00    +0.049 H 
ATOM     64 H64  LIG A   1      -4.833  -2.997  -0.694  1.00 20.00    +0.160 HD
ATOM     65 H65  LIG A   1      -5.324  -0.809   2.229  1.00 20.00    +0.064 H 
ATOM     66 H66  LIG A   1      -3.484   0.361   3.280  1.00 20.00    +0.063 H 
ATOM     67 H67  LIG A   1      -1.550   1.498   4.297  1.00 20.00    +0.066 H 
ATOM     68 H68  LIG A   1       1.052   2.259   4.440  1.00 20.00    +0.066 H 
ATOM     69 H69  LIG A   1       3.461   1.962   3.855  1.00 20.00    +0.063 H 
ATOM     70 H70  LIG A   1       5.735   2.010   3.023  1.00 20.00    +0.064 H 
ATOM     71 H71  LIG A   1       6.570   1.267  -0.496  1.00 20.00    +0.160 HD
ATOM     72 H72  LIG A   1       8.362   2.239   0.349  1.00 20.00    +0.049 H 
ATOM     73 H73  LIG A   1       7.359   2.825   1.651  1.00 20.00    +0.049 H 
ATOM     74 H74  LIG A   1       9.135   1.575   2.694  1.00 20.00    +0.030 H 
ATOM     75 H75  LIG A   1       7.711   0.555   2.833  1.00 20.00    +0.030 H 
ATOM     76 H76  LIG A   1       9.502  -0.871   2.175  1.00 20.00    +0.043 H 
ATOM     77 H77  LIG A   1       8.447  -0.705   0.769  1.00 20.00    +0.043 H 
ATOM     78 H78  LIG A   1      10.979   0.720   1.310  1.00 20.00    +0.122 HD
ATOM     79 H79  LIG A   1      11.942  -0.352  -0.429  1.00 20.00    +0.043 H 
ATOM     80 H80  LIG A   1      11.140  -1.602   0.505  1.00 20.00    +0.043 H 
ATOM     81 H81  LIG A   1       9.231  -1.595  -1.122  1.00 20.00    +0.028 H 
ATOM     82 H82  LIG A   1      10.776  -1.918  -1.888  1.00 20.00    +0.028 H 
ATOM     83 H83  LIG A   1      10.922   0.456  -2.657  1.00 20.00    +0.028 H 
ATOM     84 H84  LIG A   1       9.407   0.829  -1.843  1.00 20.00    +0.028 H 
ATOM     85 H85  LIG A   1       8.181  -0.778  -3.303  1.00 20.00    +0.043 H 
ATOM     86 H86  LIG A   1       8.946   0.540  -4.185  1.00 20.00    +0.043 H 
ATOM     87 H87  LIG A   1      10.781  -0.974  -4.661  1.00 20.00    +0.118 HD
ATOM     88 H88  LIG A   1       9.966  -2.200  -3.960  1.00 20.00    +0.118 HD
ATOM     89 H89  LIG A   1       4.397   0.434  -0.750  1.00 20.00    +0.064 H 
ATOM     90 H90  LIG A   1       2.105   0.383   0.083  1.00 20.00    +0.063 H 
ATOM     91 H91  LIG A   1      -0.868  -0.866   0.084  1.00 20.00    +0.063 H 
ATOM     92 H92  LIG A   1      -2.724  -2.042  -0.971  1.00 20.00    +0.064 H 
ATOM     93 H93  LIG A   1       2.908  -0.669   0.382  1.00 20.00    +0.293 HD
ATOM     94 H94  LIG A   1       1.450  -2.134  -0.579  1.00 20.00    +0.066 H 
ATOM     95 H95  LIG A   1      -0.905  -2.488  -1.253  1.00 20.00    +0.063 H 
ATOM     96 H96  LIG A   1      -2.600  -0.705  -0.878  1.00 20.00    +0.066 H 
ATOM     97 H97  LIG A   1      -1.618   2.350   0.635  1.00 20.00    +0.293 HD
ATOM     98 H98  LIG A   1       1.444   1.951   1.136  1.00 20.00    +0.293 HD
ENDROOT
TORSDOF 0
