ROOT
ATOM      1 C1   LIG A   1       4.232  -1.262  -1.163  1.00 20.00    -0.060 C 
ATOM      2 C2   LIG A   1       3.285  -0.100  -0.798  1.00 20.00    -0.016 C 
ATOM      3 C3   LIG A   1       2.460   0.302  -2.064  1.00 20.00    -0.023 C 
ATOM      4 C4   LIG A   1       1.070  -0.273  -2.111  1.00 20.00    -0.047 A 
ATOM      5 C5   LIG A   1       0.852  -1.628  -2.333  1.00 20.00    -0.059 A 
ATOM      6 C6   LIG A   1      -0.357  -2.194  -1.947  1.00 20.00    -0.057 A 
ATOM      7 C7   LIG A   1      -1.335  -1.421  -1.282  1.00 20.00    -0.023 A 
ATOM      8 C8   LIG A   1      -1.191  -0.017  -1.259  1.00 20.00    +0.027 A 
ATOM      9 C9   LIG A   1      -0.001   0.543  -1.733  1.00 20.00    -0.048 A 
ATOM     10 C10  LIG A   1      -2.176   0.901  -0.609  1.00 20.00    +0.194 C 
ATOM     11 O11  LIG A   1      -3.366   0.625  -0.532  1.00 20.00    -0.289 OA
ATOM     12 C12  LIG A   1      -1.740   2.200  -0.059  1.00 20.00    +0.035 A 
ATOM     13 C13  LIG A   1      -2.127   3.353  -0.755  1.00 20.00    -0.050 A 
ATOM     14 C14  LIG A   1      -1.770   4.612  -0.270  1.00 20.00    -0.061 A 
ATOM     15 C15  LIG A   1      -1.049   4.724   0.920  1.00 20.00    -0.061 A 
ATOM     16 C16  LIG A   1      -0.687   3.577   1.631  1.00 20.00    -0.049 A 
ATOM     17 C17  LIG A   1      -1.013   2.309   1.132  1.00 20.00    +0.051 A 
ATOM     18 C18  LIG A   1      -0.721   1.138   1.982  1.00 20.00    +0.261 C 
ATOM     19 O19  LIG A   1      -1.383   1.047   3.016  1.00 20.00    -0.269 OA
ATOM     20 N20  LIG A   1       0.273   0.211   1.609  1.00 20.00    -0.277 NA
ATOM     21 C21  LIG A   1       0.159  -1.092   2.295  1.00 20.00    +0.029 C 
ATOM     22 C22  LIG A   1      -0.571  -2.201   1.515  1.00 20.00    -0.034 C 
ATOM     23 C23  LIG A   1      -2.035  -1.916   1.100  1.00 20.00    -0.034 C 
ATOM     24 C24  LIG A   1      -2.323  -2.192  -0.405  1.00 20.00    +0.082 C 
ATOM     25 C25  LIG A   1      -3.770  -2.040  -0.845  1.00 20.00    +0.310 C 
ATOM     26 O26  LIG A   1      -4.165  -1.958  -1.999  1.00 20.00    -0.252 OA
ATOM     27 O27  LIG A   1      -4.659  -2.110   0.165  1.00 20.00    -0.481 OA
ATOM     28 C28  LIG A   1       1.435   0.626   0.928  1.00 20.00    +0.246 C 
ATOM     29 O29  LIG A   1       1.675   1.813   0.685  1.00 20.00    -0.273 OA
ATOM     30 C30  LIG A   1       2.493  -0.443   0.519  1.00 20.00    +0.088 C 
ATOM     31 N31  LIG A   1       3.484  -0.544   1.624  1.00 20.00    -0.320 NA
ATOM     32 N32  LIG A   1       3.202   1.308   0.319  1.00 20.00    -0.287 NA
ATOM     33 C33  LIG A   1       3.386   0.031   0.191  1.00 20.00    +0.110 C 
ATOM     34 N34  LIG A   1       4.590  -0.406  -0.270  1.00 20.00    -0.386 NA
ATOM     35 C35  LIG A   1       2.290  -0.967   0.561  1.00 20.00    +0.075 C 
ATOM     36 N36  LIG A   1       1.029  -0.479   0.052  1.00 20.00    -0.348 NA
ATOM     37 C37  LIG A   1      -0.170  -1.008   0.480  1.00 20.00    +0.237 C 
ATOM     38 O38  LIG A   1      -0.254  -1.816   1.398  1.00 20.00    -0.273 OA
ATOM     39 C39  LIG A   1      -1.375  -0.538  -0.353  1.00 20.00    +0.087 C 
ATOM     40 C40  LIG A   1      -2.692  -0.522   0.418  1.00 20.00    -0.027 C 
ATOM     41 C41  LIG A   1      -3.307   0.838   0.122  1.00 20.00    -0.039 C 
ATOM     42 C42  LIG A   1      -2.538   1.344  -1.082  1.00 20.00    -0.004 C 
ATOM     43 N43  LIG A   1      -1.175   0.853  -0.851  1.00 20.00    -0.306 NA
ATOM     44 H44  LIG A   1       4.958  -1.453  -0.367  1.00 20.00    +0.023 H 
ATOM     45 H45  LIG A   1       4.806  -1.029  -2.067  1.00 20.00    +0.023 H 
ATOM     46 H46  LIG A   1       3.677  -2.188  -1.341  1.00 20.00    +0.023 H 
ATOM     47 H47  LIG A   1       3.935   0.763  -0.593  1.00 20.00    +0.032 H 
ATOM     48 H48  LIG A   1       2.394   1.398  -2.090  1.00 20.00    +0.032 H 
ATOM     49 H49  LIG A   1       2.991   0.033  -2.986  1.00 20.00    +0.032 H 
ATOM     50 H50  LIG A   1       1.650  -2.269  -2.701  1.00 20.00    +0.063 H 
ATOM     51 H51  LIG A   1      -0.470  -3.275  -2.030  1.00 20.00    +0.063 H 
ATOM     52 H52  LIG A   1       0.173   1.617  -1.670  1.00 20.00    +0.063 H 
ATOM     53 H53  LIG A   1      -2.716   3.272  -1.667  1.00 20.00    +0.063 H 
ATOM     54 H54  LIG A   1      -2.068   5.507  -0.810  1.00 20.00    +0.062 H 
ATOM     55 H55  LIG A   1      -0.787   5.706   1.306  1.00 20.00    +0.062 H 
ATOM     56 H56  LIG A   1      -0.155   3.672   2.575  1.00 20.00    +0.063 H 
ATOM     57 H57  LIG A   1       1.154  -1.460   2.551  1.00 20.00    +0.050 H 
ATOM     58 H58  LIG A   1      -0.350  -0.967   3.257  1.00 20.00    +0.050 H 
ATOM     59 H59  LIG A   1      -0.584  -3.090   2.160  1.00 20.00    +0.029 H 
ATOM     60 H60  LIG A   1       0.044  -2.495   0.663  1.00 20.00    +0.029 H 
ATOM     61 H61  LIG A   1      -2.338  -0.904   1.374  1.00 20.00    +0.028 H 
ATOM     62 H62  LIG A   1      -2.682  -2.570   1.700  1.00 20.00    +0.028 H 
ATOM     63 H63  LIG A   1      -2.138  -3.269  -0.543  1.00 20.00    +0.047 H 
ATOM     64 H64  LIG A   1      -5.509  -1.892  -0.272  1.00 20.00    +0.296 HD
ATOM     65 H65  LIG A   1       2.011  -1.415   0.398  1.00 20.00    +0.057 H 
ATOM     66 H66  LIG A   1       3.020  -0.622   2.527  1.00 20.00    +0.119 HD
ATOM     67 H67  LIG A   1       4.003   0.337   1.670  1.00 20.00    +0.119 HD
ATOM     68 H68  LIG A   1       2.250   1.466   0.675  1.00 20.00    +0.189 HD
ATOM     69 H69  LIG A   1       5.292   0.327  -0.247  1.00 20.00    +0.157 HD
ATOM     70 H70  LIG A   1       4.923  -1.299   0.072  1.00 20.00    +0.157 HD
ATOM     71 H71  LIG A   1       2.493  -1.945   0.115  1.00 20.00    +0.058 H 
ATOM     72 H72  LIG A   1       2.241  -1.065   1.650  1.00 20.00    +0.058 H 
ATOM     73 H73  LIG A   1       1.010   0.028  -0.831  1.00 20.00    +0.163 HD
ATOM     74 H74  LIG A   1      -1.452  -1.212  -1.215  1.00 20.00    +0.057 H 
ATOM     75 H75  LIG A   1      -3.349  -1.319   0.051  1.00 20.00    +0.029 H 
ATOM     76 H76  LIG A   1      -2.574  -0.659   1.498  1.00 20.00    +0.029 H 
ATOM     77 H77  LIG A   1      -3.154   1.507   0.978  1.00 20.00    +0.028 H 
ATOM     78 H78  LIG A   1      -4.383   0.773  -0.068  1.00 20.00    +0.028 H 
ATOM     79 H79  LIG A   1      -2.935   0.922  -2.012  1.00 20.00    +0.043 H 
ATOM     80 H80  LIG A   1      -2.565   2.435  -1.162  1.00 20.00    +0.043 H 
ATOM     81 H81  LIG A   1      -0.780   1.400  -0.081  1.00 20.00    +0.123 HD
ENDROOT
TORSDOF 0
