ROOT
ATOM      1 N1   LIG A   1     -13.531   1.423  -2.207  1.00 20.00    -0.330 NA
ATOM      2 C2   LIG A   1     -12.203   1.772  -2.700  1.00 20.00    -0.008 C 
ATOM      3 C3   LIG A   1     -11.194   0.668  -2.387  1.00 20.00    -0.040 C 
ATOM      4 C4   LIG A   1      -9.804   1.020  -2.927  1.00 20.00    -0.039 C 
ATOM      5 C5   LIG A   1      -8.779  -0.097  -2.705  1.00 20.00    -0.005 C 
ATOM      6 N6   LIG A   1      -8.548  -0.321  -1.277  1.00 20.00    -0.317 NA
ATOM      7 C7   LIG A   1      -7.616  -1.429  -1.059  1.00 20.00    -0.003 C 
ATOM      8 C8   LIG A   1      -7.401  -1.633   0.442  1.00 20.00    -0.023 C 
ATOM      9 C9   LIG A   1      -6.567  -2.877   0.749  1.00 20.00    +0.016 C 
ATOM     10 N10  LIG A   1      -5.197  -2.779   0.262  1.00 20.00    -0.385 NA
ATOM     11 C11  LIG A   1      -4.226  -1.984   0.858  1.00 20.00    +0.034 A 
ATOM     12 C12  LIG A   1      -4.344  -1.430   2.135  1.00 20.00    -0.038 A 
ATOM     13 C13  LIG A   1      -3.295  -0.701   2.716  1.00 20.00    -0.049 A 
ATOM     14 C14  LIG A   1      -2.078  -0.526   2.048  1.00 20.00    +0.017 A 
ATOM     15 C15  LIG A   1      -0.981   0.212   2.670  1.00 20.00    +0.134 A 
ATOM     16 C16  LIG A   1      -0.831   0.905   3.854  1.00 20.00    -0.015 A 
ATOM     17 C17  LIG A   1       0.505   1.377   3.887  1.00 20.00    -0.015 A 
ATOM     18 C18  LIG A   1       1.106   0.950   2.719  1.00 20.00    +0.134 A 
ATOM     19 C19  LIG A   1       2.446   1.076   2.153  1.00 20.00    +0.017 A 
ATOM     20 C20  LIG A   1       3.495   1.615   2.907  1.00 20.00    -0.049 A 
ATOM     21 C21  LIG A   1       4.789   1.724   2.375  1.00 20.00    -0.038 A 
ATOM     22 C22  LIG A   1       5.073   1.330   1.065  1.00 20.00    +0.034 A 
ATOM     23 N23  LIG A   1       6.345   1.341   0.505  1.00 20.00    -0.385 NA
ATOM     24 C24  LIG A   1       7.468   2.067   1.092  1.00 20.00    +0.016 C 
ATOM     25 C25  LIG A   1       8.261   1.175   2.052  1.00 20.00    -0.023 C 
ATOM     26 C26  LIG A   1       8.985   0.023   1.348  1.00 20.00    -0.003 C 
ATOM     27 N27  LIG A   1      10.080   0.527   0.508  1.00 20.00    -0.317 NA
ATOM     28 C28  LIG A   1      10.701  -0.532  -0.291  1.00 20.00    -0.005 C 
ATOM     29 C29  LIG A   1       9.849  -1.007  -1.476  1.00 20.00    -0.039 C 
ATOM     30 C30  LIG A   1       9.497   0.127  -2.447  1.00 20.00    -0.040 C 
ATOM     31 C31  LIG A   1       8.603  -0.318  -3.607  1.00 20.00    -0.008 C 
ATOM     32 N32  LIG A   1       9.249  -1.277  -4.497  1.00 20.00    -0.330 NA
ATOM     33 C33  LIG A   1       4.026   0.767   0.325  1.00 20.00    -0.038 A 
ATOM     34 C34  LIG A   1       2.733   0.650   0.852  1.00 20.00    -0.049 A 
ATOM     35 O35  LIG A   1       0.197   0.250   1.977  1.00 20.00    -0.456 OA
ATOM     36 C36  LIG A   1      -1.944  -1.103   0.780  1.00 20.00    -0.049 A 
ATOM     37 C37  LIG A   1      -2.998  -1.826   0.204  1.00 20.00    -0.038 A 
ATOM     38 O38  LIG A   1       1.817  -1.300  -0.700  1.00 20.00    -0.504 OA
ATOM     39 C39  LIG A   1       0.710  -0.618  -0.274  1.00 20.00    +0.157 A 
ATOM     40 C40  LIG A   1      -0.432  -1.275   0.168  1.00 20.00    -0.016 A 
ATOM     41 C41  LIG A   1      -1.530  -0.521   0.591  1.00 20.00    -0.058 A 
ATOM     42 C42  LIG A   1      -1.478   0.877   0.569  1.00 20.00    -0.058 A 
ATOM     43 C43  LIG A   1      -0.327   1.529   0.124  1.00 20.00    -0.016 A 
ATOM     44 C44  LIG A   1       0.759   0.774  -0.294  1.00 20.00    +0.157 A 
ATOM     45 O45  LIG A   1       1.886   1.410  -0.730  1.00 20.00    -0.504 OA
ATOM     46 H46  LIG A   1     -13.821   0.535  -2.615  1.00 20.00    +0.118 HD
ATOM     47 H47  LIG A   1     -13.485   1.261  -1.201  1.00 20.00    +0.118 HD
ATOM     48 H48  LIG A   1     -11.890   2.714  -2.239  1.00 20.00    +0.043 H 
ATOM     49 H49  LIG A   1     -12.260   1.940  -3.781  1.00 20.00    +0.043 H 
ATOM     50 H50  LIG A   1     -11.529  -0.278  -2.834  1.00 20.00    +0.028 H 
ATOM     51 H51  LIG A   1     -11.147   0.514  -1.302  1.00 20.00    +0.028 H 
ATOM     52 H52  LIG A   1      -9.875   1.211  -4.005  1.00 20.00    +0.028 H 
ATOM     53 H53  LIG A   1      -9.450   1.950  -2.464  1.00 20.00    +0.028 H 
ATOM     54 H54  LIG A   1      -7.840   0.185  -3.196  1.00 20.00    +0.043 H 
ATOM     55 H55  LIG A   1      -9.143  -1.016  -3.180  1.00 20.00    +0.043 H 
ATOM     56 H56  LIG A   1      -8.169   0.530  -0.858  1.00 20.00    +0.122 HD
ATOM     57 H57  LIG A   1      -6.658  -1.216  -1.548  1.00 20.00    +0.043 H 
ATOM     58 H58  LIG A   1      -8.026  -2.348  -1.496  1.00 20.00    +0.043 H 
ATOM     59 H59  LIG A   1      -6.937  -0.739   0.875  1.00 20.00    +0.030 H 
ATOM     60 H60  LIG A   1      -8.376  -1.753   0.932  1.00 20.00    +0.030 H 
ATOM     61 H61  LIG A   1      -6.582  -3.088   1.824  1.00 20.00    +0.049 H 
ATOM     62 H62  LIG A   1      -7.031  -3.749   0.273  1.00 20.00    +0.049 H 
ATOM     63 H63  LIG A   1      -5.100  -2.856  -0.746  1.00 20.00    +0.160 HD
ATOM     64 H64  LIG A   1      -5.253  -1.553   2.715  1.00 20.00    +0.064 H 
ATOM     65 H65  LIG A   1      -3.446  -0.287   3.710  1.00 20.00    +0.063 H 
ATOM     66 H66  LIG A   1      -1.588   1.050   4.611  1.00 20.00    +0.066 H 
ATOM     67 H67  LIG A   1       0.969   1.953   4.673  1.00 20.00    +0.066 H 
ATOM     68 H68  LIG A   1       3.330   1.945   3.930  1.00 20.00    +0.063 H 
ATOM     69 H69  LIG A   1       5.566   2.122   3.019  1.00 20.00    +0.064 H 
ATOM     70 H70  LIG A   1       6.335   1.378  -0.511  1.00 20.00    +0.160 HD
ATOM     71 H71  LIG A   1       8.120   2.410   0.280  1.00 20.00    +0.049 H 
ATOM     72 H72  LIG A   1       7.130   2.976   1.602  1.00 20.00    +0.049 H 
ATOM     73 H73  LIG A   1       8.991   1.792   2.591  1.00 20.00    +0.030 H 
ATOM     74 H74  LIG A   1       7.594   0.750   2.810  1.00 20.00    +0.030 H 
ATOM     75 H75  LIG A   1       9.397  -0.653   2.107  1.00 20.00    +0.043 H 
ATOM     76 H76  LIG A   1       8.261  -0.550   0.762  1.00 20.00    +0.043 H 
ATOM     77 H77  LIG A   1      10.791   0.934   1.117  1.00 20.00    +0.122 HD
ATOM     78 H78  LIG A   1      11.645  -0.139  -0.688  1.00 20.00    +0.043 H 
ATOM     79 H79  LIG A   1      10.967  -1.386   0.343  1.00 20.00    +0.043 H 
ATOM     80 H80  LIG A   1       8.931  -1.488  -1.121  1.00 20.00    +0.028 H 
ATOM     81 H81  LIG A   1      10.418  -1.782  -2.004  1.00 20.00    +0.028 H 
ATOM     82 H82  LIG A   1      10.420   0.573  -2.840  1.00 20.00    +0.028 H 
ATOM     83 H83  LIG A   1       8.969   0.923  -1.909  1.00 20.00    +0.028 H 
ATOM     84 H84  LIG A   1       7.673  -0.752  -3.224  1.00 20.00    +0.043 H 
ATOM     85 H85  LIG A   1       8.323   0.562  -4.197  1.00 20.00    +0.043 H 
ATOM     86 H86  LIG A   1      10.154  -0.913  -4.791  1.00 20.00    +0.118 HD
ATOM     87 H87  LIG A   1       9.439  -2.142  -3.994  1.00 20.00    +0.118 HD
ATOM     88 H88  LIG A   1       4.209   0.401  -0.682  1.00 20.00    +0.064 H 
ATOM     89 H89  LIG A   1       1.954   0.212   0.232  1.00 20.00    +0.063 H 
ATOM     90 H90  LIG A   1      -1.012  -1.011   0.228  1.00 20.00    +0.063 H 
ATOM     91 H91  LIG A   1      -2.838  -2.280  -0.771  1.00 20.00    +0.064 H 
ATOM     92 H92  LIG A   1       1.632  -2.251  -0.620  1.00 20.00    +0.293 HD
ATOM     93 H93  LIG A   1      -0.490  -2.359   0.190  1.00 20.00    +0.066 H 
ATOM     94 H94  LIG A   1      -2.431  -1.022   0.939  1.00 20.00    +0.062 H 
ATOM     95 H95  LIG A   1      -2.335   1.458   0.899  1.00 20.00    +0.062 H 
ATOM     96 H96  LIG A   1      -0.278   2.613   0.103  1.00 20.00    +0.066 H 
ATOM     97 H97  LIG A   1       2.498   0.685  -0.965  1.00 20.00    +0.293 HD
ENDROOT
TORSDOF 0
