ROOT
ATOM      1 N1   LIG A   1       5.023   1.555  -1.645  1.00 20.00    -0.330 NA
ATOM      2 C2   LIG A   1       5.933   1.066  -0.620  1.00 20.00    -0.008 C 
ATOM      3 C3   LIG A   1       5.880  -0.458  -0.488  1.00 20.00    -0.040 C 
ATOM      4 C4   LIG A   1       4.499  -1.043  -0.165  1.00 20.00    -0.039 C 
ATOM      5 C5   LIG A   1       3.905  -0.502   1.139  1.00 20.00    -0.005 C 
ATOM      6 N6   LIG A   1       2.712  -1.240   1.573  1.00 20.00    -0.317 NA
ATOM      7 C7   LIG A   1       1.545  -0.955   0.728  1.00 20.00    -0.003 C 
ATOM      8 C8   LIG A   1       0.326  -1.700   1.279  1.00 20.00    -0.023 C 
ATOM      9 C9   LIG A   1      -0.910  -1.506   0.399  1.00 20.00    +0.017 C 
ATOM     10 N10  LIG A   1      -1.385  -0.127   0.497  1.00 20.00    -0.370 NA
ATOM     11 C11  LIG A   1      -2.558   0.120  -0.221  1.00 20.00    +0.126 A 
ATOM     12 C12  LIG A   1      -2.626  -0.038  -1.598  1.00 20.00    -0.019 A 
ATOM     13 C13  LIG A   1      -3.824   0.239  -2.248  1.00 20.00    -0.049 A 
ATOM     14 C14  LIG A   1      -4.925   0.677  -1.508  1.00 20.00    +0.000 A 
ATOM     15 C15  LIG A   1      -6.158   0.972  -2.116  1.00 20.00    -0.053 A 
ATOM     16 C16  LIG A   1      -7.234   1.411  -1.347  1.00 20.00    -0.062 A 
ATOM     17 C17  LIG A   1      -7.081   1.557   0.027  1.00 20.00    -0.060 A 
ATOM     18 C18  LIG A   1      -5.852   1.263   0.626  1.00 20.00    -0.036 A 
ATOM     19 C19  LIG A   1      -4.763   0.823  -0.115  1.00 20.00    +0.073 A 
ATOM     20 N20  LIG A   1      -3.602   0.552   0.510  1.00 20.00    -0.231 NA
ATOM     21 O21  LIG A   1       1.571  -1.709  -0.470  1.00 20.00    -0.504 OA
ATOM     22 C22  LIG A   1       0.576  -0.799  -0.259  1.00 20.00    +0.157 A 
ATOM     23 C23  LIG A   1      -0.738  -1.170  -0.508  1.00 20.00    -0.016 A 
ATOM     24 C24  LIG A   1      -1.766  -0.266  -0.229  1.00 20.00    -0.058 A 
ATOM     25 C25  LIG A   1      -1.470   0.997   0.294  1.00 20.00    -0.058 A 
ATOM     26 C26  LIG A   1      -0.144   1.369   0.525  1.00 20.00    -0.016 A 
ATOM     27 C27  LIG A   1       0.873   0.471   0.230  1.00 20.00    +0.157 A 
ATOM     28 O28  LIG A   1       2.170   0.863   0.395  1.00 20.00    -0.504 OA
ATOM     29 H29  LIG A   1       5.262   1.140  -2.545  1.00 20.00    +0.118 HD
ATOM     30 H30  LIG A   1       5.141   2.562  -1.754  1.00 20.00    +0.118 HD
ATOM     31 H31  LIG A   1       6.955   1.366  -0.877  1.00 20.00    +0.043 H 
ATOM     32 H32  LIG A   1       5.693   1.542   0.336  1.00 20.00    +0.043 H 
ATOM     33 H33  LIG A   1       6.237  -0.913  -1.421  1.00 20.00    +0.028 H 
ATOM     34 H34  LIG A   1       6.588  -0.763   0.293  1.00 20.00    +0.028 H 
ATOM     35 H35  LIG A   1       3.819  -0.852  -1.003  1.00 20.00    +0.028 H 
ATOM     36 H36  LIG A   1       4.604  -2.133  -0.091  1.00 20.00    +0.028 H 
ATOM     37 H37  LIG A   1       4.657  -0.605   1.932  1.00 20.00    +0.043 H 
ATOM     38 H38  LIG A   1       3.678   0.567   1.060  1.00 20.00    +0.043 H 
ATOM     39 H39  LIG A   1       2.493  -0.955   2.528  1.00 20.00    +0.122 HD
ATOM     40 H40  LIG A   1       1.348   0.123   0.711  1.00 20.00    +0.043 H 
ATOM     41 H41  LIG A   1       1.727  -1.287  -0.299  1.00 20.00    +0.043 H 
ATOM     42 H42  LIG A   1       0.550  -2.774   1.327  1.00 20.00    +0.030 H 
ATOM     43 H43  LIG A   1       0.112  -1.370   2.303  1.00 20.00    +0.030 H 
ATOM     44 H44  LIG A   1      -0.663  -1.772  -0.636  1.00 20.00    +0.049 H 
ATOM     45 H45  LIG A   1      -1.695  -2.192   0.743  1.00 20.00    +0.049 H 
ATOM     46 H46  LIG A   1      -1.650   0.101   1.456  1.00 20.00    +0.162 HD
ATOM     47 H47  LIG A   1      -1.757  -0.352  -2.164  1.00 20.00    +0.066 H 
ATOM     48 H48  LIG A   1      -3.886   0.121  -3.326  1.00 20.00    +0.063 H 
ATOM     49 H49  LIG A   1      -6.284   0.862  -3.190  1.00 20.00    +0.063 H 
ATOM     50 H50  LIG A   1      -8.186   1.639  -1.818  1.00 20.00    +0.062 H 
ATOM     51 H51  LIG A   1      -7.912   1.899   0.638  1.00 20.00    +0.062 H 
ATOM     52 H52  LIG A   1      -5.739   1.381   1.701  1.00 20.00    +0.065 H 
ATOM     53 H53  LIG A   1       2.212  -1.573   0.253  1.00 20.00    +0.293 HD
ATOM     54 H54  LIG A   1      -0.964  -2.157  -0.897  1.00 20.00    +0.066 H 
ATOM     55 H55  LIG A   1      -2.799  -0.549  -0.412  1.00 20.00    +0.062 H 
ATOM     56 H56  LIG A   1      -2.274   1.695   0.514  1.00 20.00    +0.062 H 
ATOM     57 H57  LIG A   1       0.092   2.354   0.915  1.00 20.00    +0.066 H 
ATOM     58 H58  LIG A   1       2.662   0.473  -0.351  1.00 20.00    +0.293 HD
ENDROOT
TORSDOF 0
