ROOT
ATOM      1 C1   LIG A   1       9.425  -0.668   0.214  1.00 20.00    -0.060 C 
ATOM      2 C2   LIG A   1       7.975  -1.169   0.082  1.00 20.00    -0.016 C 
ATOM      3 C3   LIG A   1       7.565  -1.732   1.486  1.00 20.00    -0.023 C 
ATOM      4 C4   LIG A   1       6.095  -2.015   1.625  1.00 20.00    -0.048 A 
ATOM      5 C5   LIG A   1       5.294  -1.148   2.374  1.00 20.00    -0.058 A 
ATOM      6 C6   LIG A   1       3.934  -1.069   2.102  1.00 20.00    -0.051 A 
ATOM      7 C7   LIG A   1       3.408  -1.809   1.039  1.00 20.00    +0.017 A 
ATOM      8 C8   LIG A   1       4.142  -2.889   0.533  1.00 20.00    -0.051 A 
ATOM      9 C9   LIG A   1       5.495  -3.000   0.837  1.00 20.00    -0.058 A 
ATOM     10 C10  LIG A   1       2.234  -1.304   0.297  1.00 20.00    +0.140 C 
ATOM     11 C11  LIG A   1       2.293  -1.043  -1.029  1.00 20.00    +0.047 C 
ATOM     12 C12  LIG A   1       3.515  -0.859  -1.878  1.00 20.00    +0.256 C 
ATOM     13 O13  LIG A   1       3.415  -1.022  -3.093  1.00 20.00    -0.269 OA
ATOM     14 N14  LIG A   1       4.537  -0.135  -1.271  1.00 20.00    -0.278 NA
ATOM     15 C15  LIG A   1       4.440   1.329  -1.378  1.00 20.00    +0.029 C 
ATOM     16 C16  LIG A   1       3.073   1.975  -1.043  1.00 20.00    -0.034 C 
ATOM     17 C17  LIG A   1       2.768   1.948   0.458  1.00 20.00    -0.034 C 
ATOM     18 C18  LIG A   1       1.296   2.179   0.851  1.00 20.00    +0.085 C 
ATOM     19 C19  LIG A   1       1.224   2.315   2.366  1.00 20.00    +0.311 C 
ATOM     20 O20  LIG A   1       1.478   1.462   3.202  1.00 20.00    -0.252 OA
ATOM     21 O21  LIG A   1       0.861   3.556   2.761  1.00 20.00    -0.481 OA
ATOM     22 C22  LIG A   1       0.215   1.224   0.351  1.00 20.00    +0.009 A 
ATOM     23 C23  LIG A   1      -0.883   1.804  -0.314  1.00 20.00    -0.052 A 
ATOM     24 C24  LIG A   1      -1.982   1.044  -0.740  1.00 20.00    -0.038 A 
ATOM     25 C25  LIG A   1      -2.062  -0.324  -0.483  1.00 20.00    +0.038 A 
ATOM     26 N26  LIG A   1      -3.094  -1.143  -0.929  1.00 20.00    -0.385 NA
ATOM     27 C27  LIG A   1      -4.378  -0.624  -1.383  1.00 20.00    +0.016 C 
ATOM     28 C28  LIG A   1      -5.245  -0.162  -0.212  1.00 20.00    -0.023 C 
ATOM     29 C29  LIG A   1      -6.591   0.363  -0.714  1.00 20.00    -0.003 C 
ATOM     30 N30  LIG A   1      -7.435   0.741   0.419  1.00 20.00    -0.317 NA
ATOM     31 C31  LIG A   1      -8.707   1.330  -0.003  1.00 20.00    -0.005 C 
ATOM     32 C32  LIG A   1      -9.891   0.497   0.502  1.00 20.00    -0.039 C 
ATOM     33 C33  LIG A   1     -10.008  -0.906  -0.109  1.00 20.00    -0.040 C 
ATOM     34 C34  LIG A   1     -10.202  -0.945  -1.628  1.00 20.00    -0.008 C 
ATOM     35 N35  LIG A   1     -11.440  -0.303  -2.061  1.00 20.00    -0.330 NA
ATOM     36 C36  LIG A   1      -0.963  -0.915   0.146  1.00 20.00    +0.004 A 
ATOM     37 C37  LIG A   1       0.161  -0.168   0.545  1.00 20.00    +0.133 A 
ATOM     38 O38  LIG A   1       1.174  -0.908   1.118  1.00 20.00    -0.456 OA
ATOM     39 C39  LIG A   1       5.789  -0.765  -1.298  1.00 20.00    +0.246 C 
ATOM     40 O40  LIG A   1       5.975  -1.835  -1.891  1.00 20.00    -0.273 OA
ATOM     41 C41  LIG A   1       6.984  -0.086  -0.520  1.00 20.00    +0.088 C 
ATOM     42 N42  LIG A   1       7.686   0.791  -1.487  1.00 20.00    -0.320 NA
ATOM     43 N43  LIG A   1       3.171  -0.739  -0.226  1.00 20.00    -0.328 NA
ATOM     44 C44  LIG A   1       1.815  -0.319  -0.576  1.00 20.00    +0.016 C 
ATOM     45 C45  LIG A   1       1.091   0.396   0.575  1.00 20.00    +0.059 C 
ATOM     46 O46  LIG A   1      -0.169   0.929   0.167  1.00 20.00    -0.378 OA
ATOM     47 C47  LIG A   1      -1.207  -0.047   0.123  1.00 20.00    +0.070 C 
ATOM     48 C48  LIG A   1      -2.512   0.624  -0.296  1.00 20.00    +0.067 C 
ATOM     49 O49  LIG A   1      -3.591  -0.303  -0.276  1.00 20.00    -0.394 OA
ATOM     50 H50  LIG A   1       9.863  -0.455  -0.767  1.00 20.00    +0.023 H 
ATOM     51 H51  LIG A   1      10.058  -1.430   0.683  1.00 20.00    +0.023 H 
ATOM     52 H52  LIG A   1       9.480   0.238   0.827  1.00 20.00    +0.023 H 
ATOM     53 H53  LIG A   1       8.010  -2.022  -0.607  1.00 20.00    +0.032 H 
ATOM     54 H54  LIG A   1       7.871  -1.022   2.266  1.00 20.00    +0.032 H 
ATOM     55 H55  LIG A   1       8.124  -2.655   1.688  1.00 20.00    +0.032 H 
ATOM     56 H56  LIG A   1       5.734  -0.437   3.069  1.00 20.00    +0.063 H 
ATOM     57 H57  LIG A   1       3.340  -0.313   2.609  1.00 20.00    +0.063 H 
ATOM     58 H58  LIG A   1       3.729  -3.533  -0.243  1.00 20.00    +0.063 H 
ATOM     59 H59  LIG A   1       6.098  -3.722   0.289  1.00 20.00    +0.063 H 
ATOM     60 H60  LIG A   1       1.408  -0.743  -1.583  1.00 20.00    +0.072 H 
ATOM     61 H61  LIG A   1       4.686   1.578  -2.418  1.00 20.00    +0.050 H 
ATOM     62 H62  LIG A   1       5.201   1.799  -0.749  1.00 20.00    +0.050 H 
ATOM     63 H63  LIG A   1       2.271   1.522  -1.631  1.00 20.00    +0.029 H 
ATOM     64 H64  LIG A   1       3.107   3.026  -1.359  1.00 20.00    +0.029 H 
ATOM     65 H65  LIG A   1       3.130   1.030   0.898  1.00 20.00    +0.028 H 
ATOM     66 H66  LIG A   1       3.380   2.729   0.932  1.00 20.00    +0.028 H 
ATOM     67 H67  LIG A   1       1.060   3.175   0.447  1.00 20.00    +0.047 H 
ATOM     68 H68  LIG A   1       0.837   3.493   3.739  1.00 20.00    +0.296 HD
ATOM     69 H69  LIG A   1      -0.906   2.876  -0.509  1.00 20.00    +0.063 H 
ATOM     70 H70  LIG A   1      -2.778   1.561  -1.266  1.00 20.00    +0.064 H 
ATOM     71 H71  LIG A   1      -3.172  -2.011  -0.402  1.00 20.00    +0.160 HD
ATOM     72 H72  LIG A   1      -4.895  -1.439  -1.904  1.00 20.00    +0.049 H 
ATOM     73 H73  LIG A   1      -4.247   0.168  -2.127  1.00 20.00    +0.049 H 
ATOM     74 H74  LIG A   1      -4.731   0.623   0.355  1.00 20.00    +0.030 H 
ATOM     75 H75  LIG A   1      -5.401  -0.997   0.480  1.00 20.00    +0.030 H 
ATOM     76 H76  LIG A   1      -6.419   1.224  -1.369  1.00 20.00    +0.043 H 
ATOM     77 H77  LIG A   1      -7.089  -0.418  -1.299  1.00 20.00    +0.043 H 
ATOM     78 H78  LIG A   1      -6.931   1.406   1.009  1.00 20.00    +0.122 HD
ATOM     79 H79  LIG A   1      -8.766   1.474  -1.088  1.00 20.00    +0.043 H 
ATOM     80 H80  LIG A   1      -8.782   2.334   0.434  1.00 20.00    +0.043 H 
ATOM     81 H81  LIG A   1     -10.818   1.059   0.326  1.00 20.00    +0.028 H 
ATOM     82 H82  LIG A   1      -9.815   0.392   1.594  1.00 20.00    +0.028 H 
ATOM     83 H83  LIG A   1     -10.849  -1.423   0.373  1.00 20.00    +0.028 H 
ATOM     84 H84  LIG A   1      -9.113  -1.489   0.142  1.00 20.00    +0.028 H 
ATOM     85 H85  LIG A   1     -10.225  -1.992  -1.956  1.00 20.00    +0.043 H 
ATOM     86 H86  LIG A   1      -9.358  -0.477  -2.146  1.00 20.00    +0.043 H 
ATOM     87 H87  LIG A   1     -11.450   0.674  -1.774  1.00 20.00    +0.118 HD
ATOM     88 H88  LIG A   1     -12.232  -0.745  -1.593  1.00 20.00    +0.118 HD
ATOM     89 H89  LIG A   1      -0.954  -1.990   0.319  1.00 20.00    +0.068 H 
ATOM     90 H90  LIG A   1       6.592   0.530   0.295  1.00 20.00    +0.057 H 
ATOM     91 H91  LIG A   1       7.042   1.395  -1.988  1.00 20.00    +0.119 HD
ATOM     92 H92  LIG A   1       8.344   1.393  -0.996  1.00 20.00    +0.119 HD
ATOM     93 H93  LIG A   1       3.721   0.075   0.046  1.00 20.00    +0.118 HD
ATOM     94 H94  LIG A   1       3.146  -1.352   0.588  1.00 20.00    +0.118 HD
ATOM     95 H95  LIG A   1       1.855   0.341  -1.451  1.00 20.00    +0.045 H 
ATOM     96 H96  LIG A   1       1.245  -1.200  -0.891  1.00 20.00    +0.045 H 
ATOM     97 H97  LIG A   1       1.696   1.249   0.904  1.00 20.00    +0.058 H 
ATOM     98 H98  LIG A   1       0.965  -0.265   1.442  1.00 20.00    +0.058 H 
ATOM     99 H99  LIG A   1      -0.964  -0.844  -0.587  1.00 20.00    +0.059 H 
ATOM    100 H100 LIG A   1      -1.329  -0.507   1.111  1.00 20.00    +0.059 H 
ATOM    101 H101 LIG A   1      -2.420   1.028  -1.310  1.00 20.00    +0.059 H 
ATOM    102 H102 LIG A   1      -2.751   1.466   0.362  1.00 20.00    +0.059 H 
ATOM    103 H103 LIG A   1      -3.762  -0.531   0.655  1.00 20.00    +0.210 HD
ENDROOT
TORSDOF 0
