MODEL 1
REMARK VINA RESULT:   -11.441      0.000      0.000
REMARK INTER + INTRA:         -11.441
REMARK INTER:                 -11.441
REMARK INTRA:                   0.000
REMARK UNBOUND:                 0.000
ROOT
ATOM      1 C1   LIG A   1      23.208  19.060   9.590  1.00 20.00    -0.044 C 
ATOM      2 C2   LIG A   1      21.735  18.630   9.326  1.00 20.00    +0.047 C 
ATOM      3 C3   LIG A   1      21.280  17.802  10.553  1.00 20.00    -0.044 C 
ATOM      4 C4   LIG A   1      20.918  19.958   9.264  1.00 20.00    -0.006 C 
ATOM      5 C5   LIG A   1      19.732  19.935   8.300  1.00 20.00    +0.058 C 
ATOM      6 O6   LIG A   1      18.698  20.800   8.798  1.00 20.00    -0.393 OA
ATOM      7 C7   LIG A   1      19.174  18.535   8.106  1.00 20.00    -0.006 C 
ATOM      8 C8   LIG A   1      20.245  17.559   7.555  1.00 20.00    +0.047 C 
ATOM      9 C9   LIG A   1      19.757  16.124   7.896  1.00 20.00    -0.044 C 
ATOM     10 C10  LIG A   1      20.256  17.688   6.009  1.00 20.00    -0.044 C 
ATOM     11 N11  LIG A   1      21.601  17.936   8.028  1.00 20.00    -0.144 NA
ATOM     12 O12  LIG A   1      22.495  16.817   7.944  1.00 20.00    -0.120 OA
ATOM     13 C13  LIG A   1      21.488  24.878  13.174  1.00 20.00    -0.060 C 
ATOM     14 C14  LIG A   1      21.410  23.342  13.115  1.00 20.00    -0.016 C 
ATOM     15 C15  LIG A   1      21.119  22.897  11.663  1.00 20.00    -0.023 C 
ATOM     16 C16  LIG A   1      20.367  21.581  11.532  1.00 20.00    -0.046 C 
ATOM     17 C17  LIG A   1      20.166  20.885  10.388  1.00 20.00    -0.059 C 
ATOM     18 C18  LIG A   1      21.226  20.807   9.392  1.00 20.00    -0.054 C 
ATOM     19 C19  LIG A   1      21.666  19.644   8.849  1.00 20.00    +0.009 C 
ATOM     20 C20  LIG A   1      20.836  18.470   8.847  1.00 20.00    +0.131 A 
ATOM     21 C21  LIG A   1      20.527  17.567   9.856  1.00 20.00    -0.015 A 
ATOM     22 C22  LIG A   1      19.707  16.555   9.300  1.00 20.00    -0.015 A 
ATOM     23 C23  LIG A   1      19.548  16.873   7.969  1.00 20.00    +0.134 A 
ATOM     24 C24  LIG A   1      18.845  16.258   6.847  1.00 20.00    +0.017 A 
ATOM     25 C25  LIG A   1      18.367  14.945   6.936  1.00 20.00    -0.049 A 
ATOM     26 C26  LIG A   1      17.692  14.354   5.863  1.00 20.00    -0.038 A 
ATOM     27 C27  LIG A   1      17.462  15.063   4.681  1.00 20.00    +0.034 A 
ATOM     28 N28  LIG A   1      16.809  14.454   3.591  1.00 20.00    -0.385 NA
ATOM     29 C29  LIG A   1      17.625  13.416   2.948  1.00 20.00    +0.022 C 
ATOM     30 C30  LIG A   1      16.780  12.663   1.926  1.00 20.00    +0.022 C 
ATOM     31 C31  LIG A   1      17.619  11.599   1.258  1.00 20.00    +0.092 C 
ATOM     32 N32  LIG A   1      17.872  10.473   1.839  1.00 20.00    -0.289 NA
ATOM     33 N33  LIG A   1      18.146  11.826   0.027  1.00 20.00    -0.388 NA
ATOM     34 C34  LIG A   1      17.936  16.375   4.587  1.00 20.00    -0.038 A 
ATOM     35 C35  LIG A   1      18.623  16.963   5.655  1.00 20.00    -0.049 A 
ATOM     36 O36  LIG A   1      20.230  18.020   7.697  1.00 20.00    -0.456 OA
ATOM     37 C37  LIG A   1      23.107  19.592   8.357  1.00 20.00    +0.085 C 
ATOM     38 C38  LIG A   1      23.161  18.900   7.001  1.00 20.00    +0.311 C 
ATOM     39 O39  LIG A   1      22.826  19.394   5.934  1.00 20.00    -0.252 OA
ATOM     40 O40  LIG A   1      23.592  17.623   7.042  1.00 20.00    -0.481 OA
ATOM     41 C41  LIG A   1      24.031  18.941   9.425  1.00 20.00    -0.034 C 
ATOM     42 C42  LIG A   1      24.216  19.789  10.703  1.00 20.00    -0.034 C 
ATOM     43 C43  LIG A   1      23.444  19.318  11.969  1.00 20.00    +0.025 C 
ATOM     44 N44  LIG A   1      22.697  20.400  12.644  1.00 20.00    -0.318 NA
ATOM     45 C45  LIG A   1      21.430  20.112  13.142  1.00 20.00    +0.007 C 
ATOM     46 C46  LIG A   1      20.312  20.730  12.718  1.00 20.00    -0.043 C 
ATOM     47 C47  LIG A   1      23.410  21.546  13.011  1.00 20.00    +0.243 C 
ATOM     48 O48  LIG A   1      24.636  21.619  12.835  1.00 20.00    -0.273 OA
ATOM     49 C49  LIG A   1      22.703  22.736  13.722  1.00 20.00    +0.088 C 
ATOM     50 N50  LIG A   1      22.538  22.450  15.169  1.00 20.00    -0.320 NA
ATOM     51 H51  LIG A   1      23.273  19.720  10.462  1.00 20.00    +0.025 H 
ATOM     52 H52  LIG A   1      23.622  19.606   8.734  1.00 20.00    +0.025 H 
ATOM     53 H53  LIG A   1      23.861  18.203   9.791  1.00 20.00    +0.025 H 
ATOM     54 H54  LIG A   1      21.833  16.861  10.639  1.00 20.00    +0.025 H 
ATOM     55 H55  LIG A   1      21.455  18.358  11.482  1.00 20.00    +0.025 H 
ATOM     56 H56  LIG A   1      20.214  17.563  10.533  1.00 20.00    +0.025 H 
ATOM     57 H57  LIG A   1      20.584  20.237  10.271  1.00 20.00    +0.031 H 
ATOM     58 H58  LIG A   1      21.561  20.790   8.943  1.00 20.00    +0.031 H 
ATOM     59 H59  LIG A   1      20.038  20.348   7.333  1.00 20.00    +0.060 H 
ATOM     60 H60  LIG A   1      18.385  20.394   9.625  1.00 20.00    +0.210 HD
ATOM     61 H61  LIG A   1      18.765  18.181   9.062  1.00 20.00    +0.031 H 
ATOM     62 H62  LIG A   1      18.303  18.582   7.439  1.00 20.00    +0.031 H 
ATOM     63 H63  LIG A   1      18.719  15.983   7.574  1.00 20.00    +0.025 H 
ATOM     64 H64  LIG A   1      20.348  15.353   7.389  1.00 20.00    +0.025 H 
ATOM     65 H65  LIG A   1      19.792  15.923   8.972  1.00 20.00    +0.025 H 
ATOM     66 H66  LIG A   1      19.262  17.495   5.590  1.00 20.00    +0.025 H 
ATOM     67 H67  LIG A   1      20.945  16.973   5.546  1.00 20.00    +0.025 H 
ATOM     68 H68  LIG A   1      20.557  18.693   5.689  1.00 20.00    +0.025 H 
ATOM     69 H69  LIG A   1      22.285  25.260  12.528  1.00 20.00    +0.023 H 
ATOM     70 H70  LIG A   1      20.544  25.326  12.846  1.00 20.00    +0.023 H 
ATOM     71 H71  LIG A   1      21.678  25.223  14.197  1.00 20.00    +0.023 H 
ATOM     72 H72  LIG A   1      20.550  23.078  13.747  1.00 20.00    +0.032 H 
ATOM     73 H73  LIG A   1      20.478  23.651  11.187  1.00 20.00    +0.032 H 
ATOM     74 H74  LIG A   1      22.054  22.895  11.091  1.00 20.00    +0.032 H 
ATOM     75 H75  LIG A   1      19.546  19.990  10.451  1.00 20.00    +0.063 H 
ATOM     76 H76  LIG A   1      21.872  21.679   9.324  1.00 20.00    +0.063 H 
ATOM     77 H77  LIG A   1      20.851  17.636  10.884  1.00 20.00    +0.066 H 
ATOM     78 H78  LIG A   1      19.283  15.704   9.812  1.00 20.00    +0.066 H 
ATOM     79 H79  LIG A   1      18.515  14.359   7.839  1.00 20.00    +0.063 H 
ATOM     80 H80  LIG A   1      17.326  13.335   5.962  1.00 20.00    +0.064 H 
ATOM     81 H81  LIG A   1      16.524  15.161   2.917  1.00 20.00    +0.160 HD
ATOM     82 H82  LIG A   1      18.017  12.704   3.686  1.00 20.00    +0.049 H 
ATOM     83 H83  LIG A   1      18.485  13.880   2.449  1.00 20.00    +0.049 H 
ATOM     84 H84  LIG A   1      16.386  13.349   1.167  1.00 20.00    +0.037 H 
ATOM     85 H85  LIG A   1      15.921  12.186   2.413  1.00 20.00    +0.037 H 
ATOM     86 H86  LIG A   1      17.403  10.420   2.750  1.00 20.00    +0.189 HD
ATOM     87 H87  LIG A   1      18.325  12.779  -0.259  1.00 20.00    +0.157 HD
ATOM     88 H88  LIG A   1      18.880  11.167  -0.214  1.00 20.00    +0.157 HD
ATOM     89 H89  LIG A   1      17.782  16.955   3.682  1.00 20.00    +0.064 H 
ATOM     90 H90  LIG A   1      18.978  17.988   5.550  1.00 20.00    +0.063 H 
ATOM     91 H91  LIG A   1      23.497  20.603   8.168  1.00 20.00    +0.047 H 
ATOM     92 H92  LIG A   1      23.472  17.312   6.120  1.00 20.00    +0.296 HD
ATOM     93 H93  LIG A   1      23.699  17.928   9.681  1.00 20.00    +0.028 H 
ATOM     94 H94  LIG A   1      25.024  18.821   8.967  1.00 20.00    +0.028 H 
ATOM     95 H95  LIG A   1      24.008  20.840  10.470  1.00 20.00    +0.029 H 
ATOM     96 H96  LIG A   1      25.284  19.751  10.959  1.00 20.00    +0.029 H 
ATOM     97 H97  LIG A   1      22.749  18.515  11.714  1.00 20.00    +0.050 H 
ATOM     98 H98  LIG A   1      24.158  18.916  12.698  1.00 20.00    +0.050 H 
ATOM     99 H99  LIG A   1      21.378  19.285  13.845  1.00 20.00    +0.082 H 
ATOM    100 H100 LIG A   1      19.334  20.461  13.110  1.00 20.00    +0.064 H 
ATOM    101 H101 LIG A   1      23.463  23.530  13.683  1.00 20.00    +0.057 H 
ATOM    102 H102 LIG A   1      21.920  21.650  15.273  1.00 20.00    +0.119 HD
ATOM    103 H103 LIG A   1      23.446  22.158  15.538  1.00 20.00    +0.119 HD
ENDROOT
TORSDOF 0
                                                                                                          
ENDMDL
MODEL 2
REMARK VINA RESULT:   -11.364      3.329     10.820
REMARK INTER + INTRA:         -11.364
REMARK INTER:                 -11.364
REMARK INTRA:                   0.000
REMARK UNBOUND:                 0.000
ROOT
ATOM      1 C1   LIG A   1      23.479  21.702   9.880  1.00 20.00    -0.044 C 
ATOM      2 C2   LIG A   1      22.080  22.309  10.189  1.00 20.00    +0.047 C 
ATOM      3 C3   LIG A   1      21.676  23.162   8.960  1.00 20.00    -0.044 C 
ATOM      4 C4   LIG A   1      21.115  21.090  10.315  1.00 20.00    -0.006 C 
ATOM      5 C5   LIG A   1      19.980  21.274  11.323  1.00 20.00    +0.058 C 
ATOM      6 O6   LIG A   1      18.832  20.529  10.887  1.00 20.00    -0.393 OA
ATOM      7 C7   LIG A   1      19.601  22.734  11.503  1.00 20.00    -0.006 C 
ATOM      8 C8   LIG A   1      20.801  23.586  11.989  1.00 20.00    +0.047 C 
ATOM      9 C9   LIG A   1      20.474  25.061  11.632  1.00 20.00    -0.044 C 
ATOM     10 C10  LIG A   1      20.860  23.487  13.536  1.00 20.00    -0.044 C 
ATOM     11 N11  LIG A   1      22.082  23.040  11.473  1.00 20.00    -0.144 NA
ATOM     12 O12  LIG A   1      23.105  24.045  11.496  1.00 20.00    -0.120 OA
ATOM     13 C13  LIG A   1      20.936  16.060   6.509  1.00 20.00    -0.060 C 
ATOM     14 C14  LIG A   1      21.044  17.595   6.533  1.00 20.00    -0.016 C 
ATOM     15 C15  LIG A   1      20.867  18.100   7.984  1.00 20.00    -0.023 C 
ATOM     16 C16  LIG A   1      20.283  19.500   8.110  1.00 20.00    -0.046 C 
ATOM     17 C17  LIG A   1      20.212  20.237   9.244  1.00 20.00    -0.059 C 
ATOM     18 C18  LIG A   1      21.314  20.208  10.197  1.00 20.00    -0.054 C 
ATOM     19 C19  LIG A   1      21.911  21.320  10.693  1.00 20.00    +0.009 C 
ATOM     20 C20  LIG A   1      21.226  22.585  10.698  1.00 20.00    +0.131 A 
ATOM     21 C21  LIG A   1      20.986  23.498   9.679  1.00 20.00    -0.015 A 
ATOM     22 C22  LIG A   1      20.315  24.612  10.241  1.00 20.00    -0.015 A 
ATOM     23 C23  LIG A   1      20.174  24.342  11.585  1.00 20.00    +0.134 A 
ATOM     24 C24  LIG A   1      19.595  25.058  12.718  1.00 20.00    +0.017 A 
ATOM     25 C25  LIG A   1      19.274  26.417  12.615  1.00 20.00    -0.049 A 
ATOM     26 C26  LIG A   1      18.718  27.106  13.698  1.00 20.00    -0.038 A 
ATOM     27 C27  LIG A   1      18.455  26.453  14.905  1.00 20.00    +0.034 A 
ATOM     28 N28  LIG A   1      17.924  27.158  16.003  1.00 20.00    -0.385 NA
ATOM     29 C29  LIG A   1      18.882  28.104  16.589  1.00 20.00    +0.022 C 
ATOM     30 C30  LIG A   1      18.175  28.973  17.624  1.00 20.00    +0.022 C 
ATOM     31 C31  LIG A   1      19.161  29.942  18.232  1.00 20.00    +0.092 C 
ATOM     32 N32  LIG A   1      19.522  31.018  17.615  1.00 20.00    -0.289 NA
ATOM     33 N33  LIG A   1      19.708  29.678  19.448  1.00 20.00    -0.388 NA
ATOM     34 C34  LIG A   1      18.773  25.097  15.013  1.00 20.00    -0.038 A 
ATOM     35 C35  LIG A   1      19.341  24.409  13.935  1.00 20.00    -0.049 A 
ATOM     36 O36  LIG A   1      20.726  23.127  11.859  1.00 20.00    -0.456 OA
ATOM     37 C37  LIG A   1      23.367  21.210  11.129  1.00 20.00    +0.085 C 
ATOM     38 C38  LIG A   1      23.558  21.917  12.463  1.00 20.00    +0.311 C 
ATOM     39 O39  LIG A   1      23.211  21.489  13.554  1.00 20.00    -0.252 OA
ATOM     40 O40  LIG A   1      24.135  23.133  12.374  1.00 20.00    -0.481 OA
ATOM     41 C41  LIG A   1      24.317  21.724  10.010  1.00 20.00    -0.034 C 
ATOM     42 C42  LIG A   1      24.347  20.835   8.747  1.00 20.00    -0.034 C 
ATOM     43 C43  LIG A   1      23.586  21.369   7.501  1.00 20.00    +0.025 C 
ATOM     44 N44  LIG A   1      22.688  20.371   6.882  1.00 20.00    -0.318 NA
ATOM     45 C45  LIG A   1      21.445  20.798   6.426  1.00 20.00    +0.007 C 
ATOM     46 C46  LIG A   1      20.281  20.327   6.907  1.00 20.00    -0.043 C 
ATOM     47 C47  LIG A   1      23.245  19.141   6.516  1.00 20.00    +0.243 C 
ATOM     48 O48  LIG A   1      24.460  18.926   6.646  1.00 20.00    -0.273 OA
ATOM     49 C49  LIG A   1      22.373  18.031   5.862  1.00 20.00    +0.088 C 
ATOM     50 N50  LIG A   1      22.184  18.304   4.416  1.00 20.00    -0.320 NA
ATOM     51 H51  LIG A   1      23.430  21.021   9.022  1.00 20.00    +0.025 H 
ATOM     52 H52  LIG A   1      23.861  21.127  10.733  1.00 20.00    +0.025 H 
ATOM     53 H53  LIG A   1      24.221  22.470   9.633  1.00 20.00    +0.025 H 
ATOM     54 H54  LIG A   1      22.333  24.027   8.830  1.00 20.00    +0.025 H 
ATOM     55 H55  LIG A   1      21.746  22.570   8.039  1.00 20.00    +0.025 H 
ATOM     56 H56  LIG A   1      20.648  23.527   9.015  1.00 20.00    +0.025 H 
ATOM     57 H57  LIG A   1      20.708  20.832   9.329  1.00 20.00    +0.031 H 
ATOM     58 H58  LIG A   1      21.667  20.194  10.632  1.00 20.00    +0.031 H 
ATOM     59 H59  LIG A   1      20.275  20.847  12.288  1.00 20.00    +0.060 H 
ATOM     60 H60  LIG A   1      18.536  20.952  10.063  1.00 20.00    +0.210 HD
ATOM     61 H61  LIG A   1      19.198  23.115  10.556  1.00 20.00    +0.031 H 
ATOM     62 H62  LIG A   1      18.758  22.805  12.205  1.00 20.00    +0.031 H 
ATOM     63 H63  LIG A   1      19.474  25.333  11.990  1.00 20.00    +0.025 H 
ATOM     64 H64  LIG A   1      21.172  25.767  12.096  1.00 20.00    +0.025 H 
ATOM     65 H65  LIG A   1      20.487  25.236  10.551  1.00 20.00    +0.025 H 
ATOM     66 H66  LIG A   1      19.914  23.806  13.988  1.00 20.00    +0.025 H 
ATOM     67 H67  LIG A   1      21.647  24.125  13.954  1.00 20.00    +0.025 H 
ATOM     68 H68  LIG A   1      21.053  22.460  13.869  1.00 20.00    +0.025 H 
ATOM     69 H69  LIG A   1      21.709  15.599   7.133  1.00 20.00    +0.023 H 
ATOM     70 H70  LIG A   1      19.960  15.734   6.884  1.00 20.00    +0.023 H 
ATOM     71 H71  LIG A   1      21.042  15.675   5.489  1.00 20.00    +0.023 H 
ATOM     72 H72  LIG A   1      20.196  17.947   5.928  1.00 20.00    +0.032 H 
ATOM     73 H73  LIG A   1      20.162  17.438   8.503  1.00 20.00    +0.032 H 
ATOM     74 H74  LIG A   1      21.819  18.003   8.519  1.00 20.00    +0.032 H 
ATOM     75 H75  LIG A   1      19.701  21.198   9.183  1.00 20.00    +0.063 H 
ATOM     76 H76  LIG A   1      21.855  19.267  10.261  1.00 20.00    +0.063 H 
ATOM     77 H77  LIG A   1      21.257  23.370   8.642  1.00 20.00    +0.066 H 
ATOM     78 H78  LIG A   1      19.975  25.497   9.726  1.00 20.00    +0.066 H 
ATOM     79 H79  LIG A   1      19.453  26.964  11.692  1.00 20.00    +0.063 H 
ATOM     80 H80  LIG A   1      18.472  28.160  13.588  1.00 20.00    +0.064 H 
ATOM     81 H81  LIG A   1      17.584  26.504  16.706  1.00 20.00    +0.160 HD
ATOM     82 H82  LIG A   1      19.325  28.748  15.820  1.00 20.00    +0.049 H 
ATOM     83 H83  LIG A   1      19.701  27.550  17.066  1.00 20.00    +0.049 H 
ATOM     84 H84  LIG A   1      17.734  28.354  18.414  1.00 20.00    +0.037 H 
ATOM     85 H85  LIG A   1      17.360  29.539  17.159  1.00 20.00    +0.037 H 
ATOM     86 H86  LIG A   1      19.026  31.108  16.721  1.00 20.00    +0.189 HD
ATOM     87 H87  LIG A   1      19.784  28.716  19.750  1.00 20.00    +0.157 HD
ATOM     88 H88  LIG A   1      20.524  30.249  19.644  1.00 20.00    +0.157 HD
ATOM     89 H89  LIG A   1      18.589  24.557  15.937  1.00 20.00    +0.064 H 
ATOM     90 H90  LIG A   1      19.576  23.352  14.051  1.00 20.00    +0.063 H 
ATOM     91 H91  LIG A   1      23.641  20.164  11.327  1.00 20.00    +0.047 H 
ATOM     92 H92  LIG A   1      24.091  23.474  13.292  1.00 20.00    +0.296 HD
ATOM     93 H93  LIG A   1      24.097  22.765   9.741  1.00 20.00    +0.028 H 
ATOM     94 H94  LIG A   1      25.335  21.735  10.427  1.00 20.00    +0.028 H 
ATOM     95 H95  LIG A   1      24.026  19.821   9.014  1.00 20.00    +0.029 H 
ATOM     96 H96  LIG A   1      25.401  20.740   8.450  1.00 20.00    +0.029 H 
ATOM     97 H97  LIG A   1      23.001  22.255   7.762  1.00 20.00    +0.050 H 
ATOM     98 H98  LIG A   1      24.312  21.669   6.735  1.00 20.00    +0.050 H 
ATOM     99 H99  LIG A   1      21.462  21.611   5.704  1.00 20.00    +0.082 H 
ATOM    100 H100 LIG A   1      19.326  20.703   6.547  1.00 20.00    +0.064 H 
ATOM    101 H101 LIG A   1      23.035  17.152   5.891  1.00 20.00    +0.057 H 
ATOM    102 H102 LIG A   1      21.661  19.171   4.316  1.00 20.00    +0.119 HD
ATOM    103 H103 LIG A   1      23.105  18.479   4.005  1.00 20.00    +0.119 HD
ENDROOT
TORSDOF 0
                                                                                                          
ENDMDL
MODEL 3
REMARK VINA RESULT:   -11.104      1.727      2.521
REMARK INTER + INTRA:         -11.104
REMARK INTER:                 -11.104
REMARK INTRA:                   0.000
REMARK UNBOUND:                 0.000
ROOT
ATOM      1 C1   LIG A   1      22.859  20.796  11.519  1.00 20.00    -0.044 C 
ATOM      2 C2   LIG A   1      21.522  20.506  10.775  1.00 20.00    +0.047 C 
ATOM      3 C3   LIG A   1      20.470  20.156  11.856  1.00 20.00    -0.044 C 
ATOM      4 C4   LIG A   1      21.130  21.848  10.084  1.00 20.00    -0.006 C 
ATOM      5 C5   LIG A   1      20.403  21.691   8.749  1.00 20.00    +0.058 C 
ATOM      6 O6   LIG A   1      19.501  22.795   8.565  1.00 20.00    -0.393 OA
ATOM      7 C7   LIG A   1      19.632  20.385   8.662  1.00 20.00    -0.006 C 
ATOM      8 C8   LIG A   1      20.559  19.155   8.838  1.00 20.00    +0.047 C 
ATOM      9 C9   LIG A   1      19.650  17.969   9.260  1.00 20.00    -0.044 C 
ATOM     10 C10  LIG A   1      21.157  18.808   7.449  1.00 20.00    -0.044 C 
ATOM     11 N11  LIG A   1      21.701  19.475   9.731  1.00 20.00    -0.144 NA
ATOM     12 O12  LIG A   1      22.267  18.276  10.278  1.00 20.00    -0.120 OA
ATOM     13 C13  LIG A   1      21.425  27.600  12.660  1.00 20.00    -0.060 C 
ATOM     14 C14  LIG A   1      21.005  26.143  12.923  1.00 20.00    -0.016 C 
ATOM     15 C15  LIG A   1      21.158  25.322  11.621  1.00 20.00    -0.023 C 
ATOM     16 C16  LIG A   1      20.209  24.140  11.492  1.00 20.00    -0.046 C 
ATOM     17 C17  LIG A   1      20.272  23.163  10.556  1.00 20.00    -0.059 C 
ATOM     18 C18  LIG A   1      21.566  22.647  10.132  1.00 20.00    -0.054 C 
ATOM     19 C19  LIG A   1      21.878  21.327  10.098  1.00 20.00    +0.009 C 
ATOM     20 C20  LIG A   1      20.846  20.328  10.017  1.00 20.00    +0.131 A 
ATOM     21 C21  LIG A   1      19.987  19.823  10.983  1.00 20.00    -0.015 A 
ATOM     22 C22  LIG A   1      19.203  18.808  10.382  1.00 20.00    -0.015 A 
ATOM     23 C23  LIG A   1      19.616  18.725   9.070  1.00 20.00    +0.134 A 
ATOM     24 C24  LIG A   1      19.238  17.898   7.928  1.00 20.00    +0.017 A 
ATOM     25 C25  LIG A   1      18.458  16.749   8.105  1.00 20.00    -0.049 A 
ATOM     26 C26  LIG A   1      18.093  15.955   7.013  1.00 20.00    -0.038 A 
ATOM     27 C27  LIG A   1      18.484  16.297   5.715  1.00 20.00    +0.034 A 
ATOM     28 N28  LIG A   1      18.140  15.478   4.621  1.00 20.00    -0.385 NA
ATOM     29 C29  LIG A   1      18.855  14.196   4.624  1.00 20.00    +0.022 C 
ATOM     30 C30  LIG A   1      18.280  13.287   3.543  1.00 20.00    +0.022 C 
ATOM     31 C31  LIG A   1      19.019  11.970   3.540  1.00 20.00    +0.092 C 
ATOM     32 N32  LIG A   1      18.766  11.049   4.411  1.00 20.00    -0.289 NA
ATOM     33 N33  LIG A   1      19.993  11.741   2.621  1.00 20.00    -0.388 NA
ATOM     34 C34  LIG A   1      19.261  17.444   5.532  1.00 20.00    -0.038 A 
ATOM     35 C35  LIG A   1      19.638  18.232   6.626  1.00 20.00    -0.049 A 
ATOM     36 O36  LIG A   1      20.606  19.636   8.853  1.00 20.00    -0.456 OA
ATOM     37 C37  LIG A   1      23.341  20.938  10.270  1.00 20.00    +0.085 C 
ATOM     38 C38  LIG A   1      23.710  19.867   9.252  1.00 20.00    +0.311 C 
ATOM     39 O39  LIG A   1      23.912  20.055   8.061  1.00 20.00    -0.252 OA
ATOM     40 O40  LIG A   1      23.775  18.618   9.754  1.00 20.00    -0.481 OA
ATOM     41 C41  LIG A   1      23.631  20.525  11.741  1.00 20.00    -0.034 C 
ATOM     42 C42  LIG A   1      23.542  21.689  12.754  1.00 20.00    -0.034 C 
ATOM     43 C43  LIG A   1      22.278  21.730  13.658  1.00 20.00    +0.025 C 
ATOM     44 N44  LIG A   1      21.622  23.054  13.701  1.00 20.00    -0.318 NA
ATOM     45 C45  LIG A   1      20.232  23.100  13.682  1.00 20.00    +0.007 C 
ATOM     46 C46  LIG A   1      19.527  23.703  12.708  1.00 20.00    -0.043 C 
ATOM     47 C47  LIG A   1      22.410  24.152  14.062  1.00 20.00    +0.243 C 
ATOM     48 O48  LIG A   1      23.596  24.006  14.397  1.00 20.00    -0.273 OA
ATOM     49 C49  LIG A   1      21.804  25.584  14.129  1.00 20.00    +0.088 C 
ATOM     50 N50  LIG A   1      21.066  25.775  15.402  1.00 20.00    -0.320 NA
ATOM     51 H51  LIG A   1      22.762  21.675  12.167  1.00 20.00    +0.025 H 
ATOM     52 H52  LIG A   1      23.672  20.998  10.812  1.00 20.00    +0.025 H 
ATOM     53 H53  LIG A   1      23.167  19.962  12.160  1.00 20.00    +0.025 H 
ATOM     54 H54  LIG A   1      20.711  19.221  12.373  1.00 20.00    +0.025 H 
ATOM     55 H55  LIG A   1      20.428  20.939  12.623  1.00 20.00    +0.025 H 
ATOM     56 H56  LIG A   1      19.460  20.065  11.453  1.00 20.00    +0.025 H 
ATOM     57 H57  LIG A   1      20.534  22.461  10.771  1.00 20.00    +0.031 H 
ATOM     58 H58  LIG A   1      22.026  22.451   9.879  1.00 20.00    +0.031 H 
ATOM     59 H59  LIG A   1      21.127  21.747   7.928  1.00 20.00    +0.060 H 
ATOM     60 H60  LIG A   1      18.824  22.704   9.257  1.00 20.00    +0.210 HD
ATOM     61 H61  LIG A   1      18.834  20.395   9.416  1.00 20.00    +0.031 H 
ATOM     62 H62  LIG A   1      19.098  20.342   7.703  1.00 20.00    +0.031 H 
ATOM     63 H63  LIG A   1      18.796  17.875   8.580  1.00 20.00    +0.025 H 
ATOM     64 H64  LIG A   1      20.178  17.009   9.231  1.00 20.00    +0.025 H 
ATOM     65 H65  LIG A   1      19.245  18.100  10.270  1.00 20.00    +0.025 H 
ATOM     66 H66  LIG A   1      20.365  18.629   6.713  1.00 20.00    +0.025 H 
ATOM     67 H67  LIG A   1      21.771  17.901   7.487  1.00 20.00    +0.025 H 
ATOM     68 H68  LIG A   1      21.787  19.619   7.066  1.00 20.00    +0.025 H 
ATOM     69 H69  LIG A   1      22.469  27.660  12.334  1.00 20.00    +0.023 H 
ATOM     70 H70  LIG A   1      20.801  28.049  11.880  1.00 20.00    +0.023 H 
ATOM     71 H71  LIG A   1      21.311  28.210  13.564  1.00 20.00    +0.023 H 
ATOM     72 H72  LIG A   1      19.939  26.200  13.185  1.00 20.00    +0.032 H 
ATOM     73 H73  LIG A   1      20.935  25.974  10.766  1.00 20.00    +0.032 H 
ATOM     74 H74  LIG A   1      22.206  25.023  11.504  1.00 20.00    +0.032 H 
ATOM     75 H75  LIG A   1      19.475  22.420  10.557  1.00 20.00    +0.063 H 
ATOM     76 H76  LIG A   1      22.384  23.364  10.144  1.00 20.00    +0.063 H 
ATOM     77 H77  LIG A   1      19.925  20.157  12.009  1.00 20.00    +0.066 H 
ATOM     78 H78  LIG A   1      18.431  18.215  10.850  1.00 20.00    +0.066 H 
ATOM     79 H79  LIG A   1      18.124  16.450   9.096  1.00 20.00    +0.063 H 
ATOM     80 H80  LIG A   1      17.481  15.072   7.178  1.00 20.00    +0.064 H 
ATOM     81 H81  LIG A   1      18.297  15.979   3.749  1.00 20.00    +0.160 HD
ATOM     82 H82  LIG A   1      18.771  13.696   5.597  1.00 20.00    +0.049 H 
ATOM     83 H83  LIG A   1      19.923  14.369   4.435  1.00 20.00    +0.049 H 
ATOM     84 H84  LIG A   1      18.364  13.757   2.556  1.00 20.00    +0.037 H 
ATOM     85 H85  LIG A   1      17.215  13.098   3.725  1.00 20.00    +0.037 H 
ATOM     86 H86  LIG A   1      18.003  11.338   5.033  1.00 20.00    +0.189 HD
ATOM     87 H87  LIG A   1      20.488  12.530   2.227  1.00 20.00    +0.157 HD
ATOM     88 H88  LIG A   1      20.581  10.949   2.859  1.00 20.00    +0.157 HD
ATOM     89 H89  LIG A   1      19.589  17.738   4.540  1.00 20.00    +0.064 H 
ATOM     90 H90  LIG A   1      20.243  19.120   6.449  1.00 20.00    +0.063 H 
ATOM     91 H91  LIG A   1      24.004  21.783  10.037  1.00 20.00    +0.047 H 
ATOM     92 H92  LIG A   1      23.923  18.061   8.961  1.00 20.00    +0.296 HD
ATOM     93 H93  LIG A   1      22.995  19.691  12.058  1.00 20.00    +0.028 H 
ATOM     94 H94  LIG A   1      24.661  20.141  11.774  1.00 20.00    +0.028 H 
ATOM     95 H95  LIG A   1      23.693  22.637  12.226  1.00 20.00    +0.029 H 
ATOM     96 H96  LIG A   1      24.404  21.588  13.430  1.00 20.00    +0.029 H 
ATOM     97 H97  LIG A   1      21.548  20.986  13.327  1.00 20.00    +0.050 H 
ATOM     98 H98  LIG A   1      22.561  21.476  14.687  1.00 20.00    +0.050 H 
ATOM     99 H99  LIG A   1      19.731  22.540  14.468  1.00 20.00    +0.082 H 
ATOM    100 H100 LIG A   1      18.440  23.697  12.709  1.00 20.00    +0.064 H 
ATOM    101 H101 LIG A   1      22.696  26.221  14.230  1.00 20.00    +0.057 H 
ATOM    102 H102 LIG A   1      20.278  25.132  15.418  1.00 20.00    +0.119 HD
ATOM    103 H103 LIG A   1      21.681  25.490  16.169  1.00 20.00    +0.119 HD
ENDROOT
TORSDOF 0
                                                                                                          
ENDMDL
MODEL 4
REMARK VINA RESULT:   -11.088      2.039      9.848
REMARK INTER + INTRA:         -11.088
REMARK INTER:                 -11.088
REMARK INTRA:                   0.000
REMARK UNBOUND:                 0.000
ROOT
ATOM      1 C1   LIG A   1      21.302  15.594   6.850  1.00 20.00    -0.044 C 
ATOM      2 C2   LIG A   1      20.441  16.725   7.487  1.00 20.00    +0.047 C 
ATOM      3 C3   LIG A   1      20.034  17.682   6.339  1.00 20.00    -0.044 C 
ATOM      4 C4   LIG A   1      19.171  16.016   8.048  1.00 20.00    -0.006 C 
ATOM      5 C5   LIG A   1      18.597  16.643   9.319  1.00 20.00    +0.058 C 
ATOM      6 O6   LIG A   1      17.174  16.448   9.345  1.00 20.00    -0.393 OA
ATOM      7 C7   LIG A   1      18.909  18.126   9.421  1.00 20.00    -0.006 C 
ATOM      8 C8   LIG A   1      20.436  18.396   9.413  1.00 20.00    +0.047 C 
ATOM      9 C9   LIG A   1      20.624  19.878   8.989  1.00 20.00    -0.044 C 
ATOM     10 C10  LIG A   1      20.950  18.264  10.870  1.00 20.00    -0.044 C 
ATOM     11 N11  LIG A   1      21.151  17.373   8.609  1.00 20.00    -0.144 NA
ATOM     12 O12  LIG A   1      22.436  17.862   8.197  1.00 20.00    -0.120 OA
ATOM     13 C13  LIG A   1      15.784  11.560   5.133  1.00 20.00    -0.060 C 
ATOM     14 C14  LIG A   1      16.493  12.911   4.931  1.00 20.00    -0.016 C 
ATOM     15 C15  LIG A   1      17.014  13.427   6.293  1.00 20.00    -0.023 C 
ATOM     16 C16  LIG A   1      17.108  14.941   6.412  1.00 20.00    -0.046 C 
ATOM     17 C17  LIG A   1      17.709  15.628   7.413  1.00 20.00    -0.059 C 
ATOM     18 C18  LIG A   1      18.953  15.132   7.987  1.00 20.00    -0.054 C 
ATOM     19 C19  LIG A   1      20.068  15.889   8.138  1.00 20.00    +0.009 C 
ATOM     20 C20  LIG A   1      19.984  17.324   8.190  1.00 20.00    +0.131 A 
ATOM     21 C21  LIG A   1      19.809  18.266   7.184  1.00 20.00    -0.015 A 
ATOM     22 C22  LIG A   1      19.857  19.551   7.778  1.00 20.00    -0.015 A 
ATOM     23 C23  LIG A   1      20.066  19.349   9.125  1.00 20.00    +0.134 A 
ATOM     24 C24  LIG A   1      20.222  20.228  10.280  1.00 20.00    +0.017 A 
ATOM     25 C25  LIG A   1      20.451  21.599  10.109  1.00 20.00    -0.049 A 
ATOM     26 C26  LIG A   1      20.600  22.444  11.214  1.00 20.00    -0.038 A 
ATOM     27 C27  LIG A   1      20.507  21.945  12.516  1.00 20.00    +0.034 A 
ATOM     28 N28  LIG A   1      20.688  22.794  13.626  1.00 20.00    -0.385 NA
ATOM     29 C29  LIG A   1      22.076  23.249  13.774  1.00 20.00    +0.022 C 
ATOM     30 C30  LIG A   1      22.150  24.321  14.856  1.00 20.00    +0.022 C 
ATOM     31 C31  LIG A   1      23.579  24.785  15.014  1.00 20.00    +0.092 C 
ATOM     32 N32  LIG A   1      24.115  25.620  14.187  1.00 20.00    -0.289 NA
ATOM     33 N33  LIG A   1      24.339  24.304  16.032  1.00 20.00    -0.388 NA
ATOM     34 C34  LIG A   1      20.277  20.578  12.692  1.00 20.00    -0.038 A 
ATOM     35 C35  LIG A   1      20.141  19.729  11.588  1.00 20.00    -0.049 A 
ATOM     36 O36  LIG A   1      20.147  18.012   9.370  1.00 20.00    -0.456 OA
ATOM     37 C37  LIG A   1      21.416  15.179   8.126  1.00 20.00    +0.085 C 
ATOM     38 C38  LIG A   1      22.295  15.727   9.242  1.00 20.00    +0.311 C 
ATOM     39 O39  LIG A   1      22.181  15.469  10.432  1.00 20.00    -0.252 OA
ATOM     40 O40  LIG A   1      23.243  16.593   8.833  1.00 20.00    -0.481 OA
ATOM     41 C41  LIG A   1      22.072  15.264   6.719  1.00 20.00    -0.034 C 
ATOM     42 C42  LIG A   1      21.334  14.457   5.627  1.00 20.00    -0.034 C 
ATOM     43 C43  LIG A   1      20.488  15.275   4.610  1.00 20.00    +0.025 C 
ATOM     44 N44  LIG A   1      19.120  14.748   4.419  1.00 20.00    -0.318 NA
ATOM     45 C45  LIG A   1      18.074  15.658   4.308  1.00 20.00    +0.007 C 
ATOM     46 C46  LIG A   1      17.044  15.709   5.171  1.00 20.00    -0.043 C 
ATOM     47 C47  LIG A   1      18.991  13.402   4.060  1.00 20.00    +0.243 C 
ATOM     48 O48  LIG A   1      19.991  12.699   3.845  1.00 20.00    -0.273 OA
ATOM     49 C49  LIG A   1      17.589  12.762   3.842  1.00 20.00    +0.088 C 
ATOM     50 N50  LIG A   1      17.066  13.106   2.497  1.00 20.00    -0.320 NA
ATOM     51 H51  LIG A   1      20.710  15.005   6.139  1.00 20.00    +0.025 H 
ATOM     52 H52  LIG A   1      21.678  14.902   7.614  1.00 20.00    +0.025 H 
ATOM     53 H53  LIG A   1      22.163  15.987   6.298  1.00 20.00    +0.025 H 
ATOM     54 H54  LIG A   1      20.899  18.197   5.910  1.00 20.00    +0.025 H 
ATOM     55 H55  LIG A   1      19.560  17.125   5.521  1.00 20.00    +0.025 H 
ATOM     56 H56  LIG A   1      19.314  18.440   6.654  1.00 20.00    +0.025 H 
ATOM     57 H57  LIG A   1      18.399  15.962   7.270  1.00 20.00    +0.031 H 
ATOM     58 H58  LIG A   1      19.392  14.967   8.294  1.00 20.00    +0.031 H 
ATOM     59 H59  LIG A   1      18.994  16.121  10.196  1.00 20.00    +0.060 H 
ATOM     60 H60  LIG A   1      16.820  16.966   8.601  1.00 20.00    +0.210 HD
ATOM     61 H61  LIG A   1      18.406  18.651   8.598  1.00 20.00    +0.031 H 
ATOM     62 H62  LIG A   1      18.442  18.533  10.328  1.00 20.00    +0.031 H 
ATOM     63 H63  LIG A   1      19.989  20.537   9.593  1.00 20.00    +0.025 H 
ATOM     64 H64  LIG A   1      21.654  20.224   9.130  1.00 20.00    +0.025 H 
ATOM     65 H65  LIG A   1      20.353  20.044   7.940  1.00 20.00    +0.025 H 
ATOM     66 H66  LIG A   1      20.412  18.942  11.542  1.00 20.00    +0.025 H 
ATOM     67 H67  LIG A   1      22.015  18.511  10.950  1.00 20.00    +0.025 H 
ATOM     68 H68  LIG A   1      20.816  17.246  11.256  1.00 20.00    +0.025 H 
ATOM     69 H69  LIG A   1      16.467  10.812   5.548  1.00 20.00    +0.023 H 
ATOM     70 H70  LIG A   1      14.939  11.666   5.821  1.00 20.00    +0.023 H 
ATOM     71 H71  LIG A   1      15.390  11.178   4.184  1.00 20.00    +0.023 H 
ATOM     72 H72  LIG A   1      15.708  13.591   4.569  1.00 20.00    +0.032 H 
ATOM     73 H73  LIG A   1      16.314  13.112   7.078  1.00 20.00    +0.032 H 
ATOM     74 H74  LIG A   1      17.966  12.937   6.525  1.00 20.00    +0.032 H 
ATOM     75 H75  LIG A   1      17.632  16.715   7.389  1.00 20.00    +0.063 H 
ATOM     76 H76  LIG A   1      19.065  14.050   8.003  1.00 20.00    +0.063 H 
ATOM     77 H77  LIG A   1      19.653  18.049   6.138  1.00 20.00    +0.066 H 
ATOM     78 H78  LIG A   1      19.749  20.504   7.282  1.00 20.00    +0.066 H 
ATOM     79 H79  LIG A   1      20.522  22.032   9.114  1.00 20.00    +0.063 H 
ATOM     80 H80  LIG A   1      20.770  23.505  11.052  1.00 20.00    +0.064 H 
ATOM     81 H81  LIG A   1      20.365  22.332  14.474  1.00 20.00    +0.160 HD
ATOM     82 H82  LIG A   1      22.462  23.660  12.832  1.00 20.00    +0.049 H 
ATOM     83 H83  LIG A   1      22.715  22.399  14.048  1.00 20.00    +0.049 H 
ATOM     84 H84  LIG A   1      21.783  23.932  15.813  1.00 20.00    +0.037 H 
ATOM     85 H85  LIG A   1      21.524  25.181  14.590  1.00 20.00    +0.037 H 
ATOM     86 H86  LIG A   1      23.434  25.919  13.479  1.00 20.00    +0.189 HD
ATOM     87 H87  LIG A   1      24.121  23.394  16.415  1.00 20.00    +0.157 HD
ATOM     88 H88  LIG A   1      25.330  24.482  15.901  1.00 20.00    +0.157 HD
ATOM     89 H89  LIG A   1      20.205  20.153  13.689  1.00 20.00    +0.064 H 
ATOM     90 H90  LIG A   1      19.961  18.669  11.760  1.00 20.00    +0.063 H 
ATOM     91 H91  LIG A   1      21.301  14.111   8.363  1.00 20.00    +0.047 H 
ATOM     92 H92  LIG A   1      23.639  16.911   9.672  1.00 20.00    +0.296 HD
ATOM     93 H93  LIG A   1      22.209  16.305   6.401  1.00 20.00    +0.028 H 
ATOM     94 H94  LIG A   1      23.085  14.845   6.806  1.00 20.00    +0.028 H 
ATOM     95 H95  LIG A   1      20.743  13.666   6.102  1.00 20.00    +0.029 H 
ATOM     96 H96  LIG A   1      22.105  13.937   5.041  1.00 20.00    +0.029 H 
ATOM     97 H97  LIG A   1      20.422  16.320   4.922  1.00 20.00    +0.050 H 
ATOM     98 H98  LIG A   1      20.981  15.254   3.631  1.00 20.00    +0.050 H 
ATOM     99 H99  LIG A   1      18.177  16.399   3.519  1.00 20.00    +0.082 H 
ATOM    100 H100 LIG A   1      16.256  16.452   5.070  1.00 20.00    +0.064 H 
ATOM    101 H101 LIG A   1      17.818  11.688   3.782  1.00 20.00    +0.057 H 
ATOM    102 H102 LIG A   1      16.928  14.113   2.452  1.00 20.00    +0.119 HD
ATOM    103 H103 LIG A   1      17.792  12.887   1.811  1.00 20.00    +0.119 HD
ENDROOT
TORSDOF 0
                                                                                                          
ENDMDL
MODEL 5
REMARK VINA RESULT:   -11.087      2.376      9.991
REMARK INTER + INTRA:         -11.087
REMARK INTER:                 -11.087
REMARK INTRA:                   0.000
REMARK UNBOUND:                 0.000
ROOT
ATOM      1 C1   LIG A   1      22.379  18.913   7.683  1.00 20.00    -0.044 C 
ATOM      2 C2   LIG A   1      21.260  19.604   8.516  1.00 20.00    +0.047 C 
ATOM      3 C3   LIG A   1      20.291  20.268   7.506  1.00 20.00    -0.044 C 
ATOM      4 C4   LIG A   1      20.523  18.449   9.261  1.00 20.00    -0.006 C 
ATOM      5 C5   LIG A   1      19.983  18.821  10.642  1.00 20.00    +0.058 C 
ATOM      6 O6   LIG A   1      18.799  18.053  10.913  1.00 20.00    -0.393 OA
ATOM      7 C7   LIG A   1      19.666  20.302  10.757  1.00 20.00    -0.006 C 
ATOM      8 C8   LIG A   1      20.914  21.182  10.489  1.00 20.00    +0.047 C 
ATOM      9 C9   LIG A   1      20.391  22.594  10.110  1.00 20.00    -0.044 C 
ATOM     10 C10  LIG A   1      21.693  21.321  11.824  1.00 20.00    -0.044 C 
ATOM     11 N11  LIG A   1      21.829  20.524   9.523  1.00 20.00    -0.144 NA
ATOM     12 O12  LIG A   1      22.697  21.488   8.911  1.00 20.00    -0.120 OA
ATOM     13 C13  LIG A   1      18.816  12.900   6.789  1.00 20.00    -0.060 C 
ATOM     14 C14  LIG A   1      18.852  14.416   6.528  1.00 20.00    -0.016 C 
ATOM     15 C15  LIG A   1      19.351  15.145   7.798  1.00 20.00    -0.023 C 
ATOM     16 C16  LIG A   1      18.830  16.564   7.971  1.00 20.00    -0.046 C 
ATOM     17 C17  LIG A   1      19.264  17.469   8.880  1.00 20.00    -0.059 C 
ATOM     18 C18  LIG A   1      20.683  17.554   9.198  1.00 20.00    -0.054 C 
ATOM     19 C19  LIG A   1      21.392  18.710   9.182  1.00 20.00    +0.009 C 
ATOM     20 C20  LIG A   1      20.732  19.981   9.317  1.00 20.00    +0.131 A 
ATOM     21 C21  LIG A   1      20.003  20.733   8.405  1.00 20.00    -0.015 A 
ATOM     22 C22  LIG A   1      19.622  21.940   9.041  1.00 20.00    -0.015 A 
ATOM     23 C23  LIG A   1      20.138  21.885  10.317  1.00 20.00    +0.134 A 
ATOM     24 C24  LIG A   1      20.123  22.785  11.467  1.00 20.00    +0.017 A 
ATOM     25 C25  LIG A   1      19.729  24.121  11.323  1.00 20.00    -0.049 A 
ATOM     26 C26  LIG A   1      19.713  24.986  12.423  1.00 20.00    -0.038 A 
ATOM     27 C27  LIG A   1      20.074  24.535  13.696  1.00 20.00    +0.034 A 
ATOM     28 N28  LIG A   1      20.086  25.417  14.794  1.00 20.00    -0.385 NA
ATOM     29 C29  LIG A   1      21.163  26.412  14.713  1.00 20.00    +0.022 C 
ATOM     30 C30  LIG A   1      20.983  27.451  15.814  1.00 20.00    +0.022 C 
ATOM     31 C31  LIG A   1      22.094  28.472  15.736  1.00 20.00    +0.092 C 
ATOM     32 N32  LIG A   1      22.075  29.428  14.867  1.00 20.00    -0.289 NA
ATOM     33 N33  LIG A   1      23.157  28.382  16.577  1.00 20.00    -0.388 NA
ATOM     34 C34  LIG A   1      20.467  23.203  13.845  1.00 20.00    -0.038 A 
ATOM     35 C35  LIG A   1      20.496  22.339  12.743  1.00 20.00    -0.049 A 
ATOM     36 O36  LIG A   1      20.808  20.711  10.480  1.00 20.00    -0.456 OA
ATOM     37 C37  LIG A   1      22.886  18.624   8.896  1.00 20.00    +0.085 C 
ATOM     38 C38  LIG A   1      23.646  19.522   9.862  1.00 20.00    +0.311 C 
ATOM     39 O39  LIG A   1      23.868  19.278  11.039  1.00 20.00    -0.252 OA
ATOM     40 O40  LIG A   1      24.059  20.691   9.332  1.00 20.00    -0.481 OA
ATOM     41 C41  LIG A   1      23.179  18.930   7.400  1.00 20.00    -0.034 C 
ATOM     42 C42  LIG A   1      22.656  17.855   6.420  1.00 20.00    -0.034 C 
ATOM     43 C43  LIG A   1      21.377  18.214   5.611  1.00 20.00    +0.025 C 
ATOM     44 N44  LIG A   1      20.341  17.161   5.643  1.00 20.00    -0.318 NA
ATOM     45 C45  LIG A   1      19.011  17.551   5.764  1.00 20.00    +0.007 C 
ATOM     46 C46  LIG A   1      18.228  17.195   6.799  1.00 20.00    -0.043 C 
ATOM     47 C47  LIG A   1      20.717  15.872   5.249  1.00 20.00    +0.243 C 
ATOM     48 O48  LIG A   1      21.861  15.643   4.826  1.00 20.00    -0.273 OA
ATOM     49 C49  LIG A   1      19.692  14.702   5.255  1.00 20.00    +0.088 C 
ATOM     50 N50  LIG A   1      18.838  14.755   4.044  1.00 20.00    -0.320 NA
ATOM     51 H51  LIG A   1      21.966  18.110   7.062  1.00 20.00    +0.025 H 
ATOM     52 H52  LIG A   1      23.141  18.465   8.333  1.00 20.00    +0.025 H 
ATOM     53 H53  LIG A   1      22.884  19.611   7.004  1.00 20.00    +0.025 H 
ATOM     54 H54  LIG A   1      20.771  21.083   6.955  1.00 20.00    +0.025 H 
ATOM     55 H55  LIG A   1      19.950  19.539   6.761  1.00 20.00    +0.025 H 
ATOM     56 H56  LIG A   1      19.393  20.669   7.981  1.00 20.00    +0.025 H 
ATOM     57 H57  LIG A   1      19.715  18.055   8.632  1.00 20.00    +0.031 H 
ATOM     58 H58  LIG A   1      21.199  17.596   9.413  1.00 20.00    +0.031 H 
ATOM     59 H59  LIG A   1      20.714  18.539  11.409  1.00 20.00    +0.060 H 
ATOM     60 H60  LIG A   1      18.133  18.354  10.270  1.00 20.00    +0.210 HD
ATOM     61 H61  LIG A   1      18.850  20.545  10.064  1.00 20.00    +0.031 H 
ATOM     62 H62  LIG A   1      19.246  20.506  11.752  1.00 20.00    +0.031 H 
ATOM     63 H63  LIG A   1      19.663  22.948  10.849  1.00 20.00    +0.025 H 
ATOM     64 H64  LIG A   1      21.192  23.340  10.081  1.00 20.00    +0.025 H 
ATOM     65 H65  LIG A   1      19.890  22.599   9.135  1.00 20.00    +0.025 H 
ATOM     66 H66  LIG A   1      21.055  21.735  12.612  1.00 20.00    +0.025 H 
ATOM     67 H67  LIG A   1      22.555  21.991  11.723  1.00 20.00    +0.025 H 
ATOM     68 H68  LIG A   1      22.066  20.352  12.177  1.00 20.00    +0.025 H 
ATOM     69 H69  LIG A   1      19.810  12.517   7.040  1.00 20.00    +0.023 H 
ATOM     70 H70  LIG A   1      18.143  12.666   7.622  1.00 20.00    +0.023 H 
ATOM     71 H71  LIG A   1      18.449  12.359   5.909  1.00 20.00    +0.023 H 
ATOM     72 H72  LIG A   1      17.804  14.697   6.345  1.00 20.00    +0.032 H 
ATOM     73 H73  LIG A   1      19.000  14.592   8.680  1.00 20.00    +0.032 H 
ATOM     74 H74  LIG A   1      20.445  15.101   7.833  1.00 20.00    +0.032 H 
ATOM     75 H75  LIG A   1      18.741  18.424   8.921  1.00 20.00    +0.063 H 
ATOM     76 H76  LIG A   1      21.234  16.617   9.142  1.00 20.00    +0.063 H 
ATOM     77 H77  LIG A   1      19.763  20.438   7.394  1.00 20.00    +0.066 H 
ATOM     78 H78  LIG A   1      19.040  22.745   8.618  1.00 20.00    +0.066 H 
ATOM     79 H79  LIG A   1      19.431  24.513  10.354  1.00 20.00    +0.063 H 
ATOM     80 H80  LIG A   1      19.396  26.017  12.283  1.00 20.00    +0.064 H 
ATOM     81 H81  LIG A   1      20.145  24.890  15.663  1.00 20.00    +0.160 HD
ATOM     82 H82  LIG A   1      21.166  26.916  13.738  1.00 20.00    +0.049 H 
ATOM     83 H83  LIG A   1      22.135  25.914  14.828  1.00 20.00    +0.049 H 
ATOM     84 H84  LIG A   1      20.991  26.976  16.802  1.00 20.00    +0.037 H 
ATOM     85 H85  LIG A   1      20.020  27.964  15.705  1.00 20.00    +0.037 H 
ATOM     86 H86  LIG A   1      21.215  29.395  14.308  1.00 20.00    +0.189 HD
ATOM     87 H87  LIG A   1      23.409  27.477  16.950  1.00 20.00    +0.157 HD
ATOM     88 H88  LIG A   1      23.943  28.952  16.281  1.00 20.00    +0.157 HD
ATOM     89 H89  LIG A   1      20.761  22.818  14.817  1.00 20.00    +0.064 H 
ATOM     90 H90  LIG A   1      20.806  21.306  12.894  1.00 20.00    +0.063 H 
ATOM     91 H91  LIG A   1      23.268  17.613   9.098  1.00 20.00    +0.047 H 
ATOM     92 H92  LIG A   1      24.433  21.171  10.100  1.00 20.00    +0.296 HD
ATOM     93 H93  LIG A   1      22.812  19.922   7.113  1.00 20.00    +0.028 H 
ATOM     94 H94  LIG A   1      24.272  18.973   7.285  1.00 20.00    +0.028 H 
ATOM     95 H95  LIG A   1      22.543  16.905   6.956  1.00 20.00    +0.029 H 
ATOM     96 H96  LIG A   1      23.452  17.684   5.682  1.00 20.00    +0.029 H 
ATOM     97 H97  LIG A   1      20.943  19.147   5.979  1.00 20.00    +0.050 H 
ATOM     98 H98  LIG A   1      21.647  18.369   4.560  1.00 20.00    +0.050 H 
ATOM     99 H99  LIG A   1      18.652  18.242   5.005  1.00 20.00    +0.082 H 
ATOM    100 H100 LIG A   1      17.200  17.541   6.876  1.00 20.00    +0.064 H 
ATOM    101 H101 LIG A   1      20.330  13.818   5.104  1.00 20.00    +0.057 H 
ATOM    102 H102 LIG A   1      18.290  15.612   4.071  1.00 20.00    +0.119 HD
ATOM    103 H103 LIG A   1      19.451  14.836   3.229  1.00 20.00    +0.119 HD
ENDROOT
TORSDOF 0
                                                                                                          
ENDMDL
MODEL 6
REMARK VINA RESULT:   -10.658      3.021     11.138
REMARK INTER + INTRA:         -10.658
REMARK INTER:                 -10.658
REMARK INTRA:                   0.000
REMARK UNBOUND:                 0.000
ROOT
ATOM      1 C1   LIG A   1      18.202  11.969   4.645  1.00 20.00    -0.044 C 
ATOM      2 C2   LIG A   1      18.107  13.515   4.797  1.00 20.00    +0.047 C 
ATOM      3 C3   LIG A   1      18.695  14.133   3.504  1.00 20.00    -0.044 C 
ATOM      4 C4   LIG A   1      16.583  13.834   4.879  1.00 20.00    -0.006 C 
ATOM      5 C5   LIG A   1      16.225  15.026   5.767  1.00 20.00    +0.058 C 
ATOM      6 O6   LIG A   1      15.045  15.664   5.254  1.00 20.00    -0.393 OA
ATOM      7 C7   LIG A   1      17.353  16.038   5.854  1.00 20.00    -0.006 C 
ATOM      8 C8   LIG A   1      18.653  15.408   6.418  1.00 20.00    +0.047 C 
ATOM      9 C9   LIG A   1      19.823  16.327   5.975  1.00 20.00    -0.044 C 
ATOM     10 C10  LIG A   1      18.578  15.468   7.966  1.00 20.00    -0.044 C 
ATOM     11 N11  LIG A   1      18.750  13.973   6.047  1.00 20.00    -0.144 NA
ATOM     12 O12  LIG A   1      20.109  13.521   6.127  1.00 20.00    -0.120 OA
ATOM     13 C13  LIG A   1      12.048  11.338   1.270  1.00 20.00    -0.060 C 
ATOM     14 C14  LIG A   1      13.465  11.937   1.244  1.00 20.00    -0.016 C 
ATOM     15 C15  LIG A   1      13.824  12.469   2.652  1.00 20.00    -0.023 C 
ATOM     16 C16  LIG A   1      14.806  13.631   2.668  1.00 20.00    -0.046 C 
ATOM     17 C17  LIG A   1      15.423  14.141   3.761  1.00 20.00    -0.059 C 
ATOM     18 C18  LIG A   1      15.888  13.248   4.814  1.00 20.00    -0.054 C 
ATOM     19 C19  LIG A   1      17.145  13.270   5.321  1.00 20.00    +0.009 C 
ATOM     20 C20  LIG A   1      17.963  14.448   5.213  1.00 20.00    +0.131 A 
ATOM     21 C21  LIG A   1      18.677  14.969   4.141  1.00 20.00    -0.015 A 
ATOM     22 C22  LIG A   1      19.362  16.123   4.594  1.00 20.00    -0.015 A 
ATOM     23 C23  LIG A   1      19.046  16.263   5.928  1.00 20.00    +0.134 A 
ATOM     24 C24  LIG A   1      19.414  17.215   6.972  1.00 20.00    +0.017 A 
ATOM     25 C25  LIG A   1      20.481  18.102   6.787  1.00 20.00    -0.049 A 
ATOM     26 C26  LIG A   1      20.835  19.016   7.786  1.00 20.00    -0.038 A 
ATOM     27 C27  LIG A   1      20.123  19.077   8.987  1.00 20.00    +0.034 A 
ATOM     28 N28  LIG A   1      20.503  19.977  10.002  1.00 20.00    -0.385 NA
ATOM     29 C29  LIG A   1      21.775  19.614  10.639  1.00 20.00    +0.022 C 
ATOM     30 C30  LIG A   1      22.221  20.738  11.568  1.00 20.00    +0.022 C 
ATOM     31 C31  LIG A   1      23.526  20.362  12.229  1.00 20.00    +0.092 C 
ATOM     32 N32  LIG A   1      24.654  20.464  11.607  1.00 20.00    -0.289 NA
ATOM     33 N33  LIG A   1      23.529  19.882  13.500  1.00 20.00    -0.388 NA
ATOM     34 C34  LIG A   1      19.057  18.195   9.177  1.00 20.00    -0.038 A 
ATOM     35 C35  LIG A   1      18.709  17.271   8.184  1.00 20.00    -0.049 A 
ATOM     36 O36  LIG A   1      18.210  15.254   6.299  1.00 20.00    -0.456 OA
ATOM     37 C37  LIG A   1      17.702  11.974   5.896  1.00 20.00    +0.085 C 
ATOM     38 C38  LIG A   1      18.409  12.258   7.214  1.00 20.00    +0.311 C 
ATOM     39 O39  LIG A   1      17.860  12.484   8.283  1.00 20.00    -0.252 OA
ATOM     40 O40  LIG A   1      19.754  12.286   7.133  1.00 20.00    -0.481 OA
ATOM     41 C41  LIG A   1      18.600  11.250   4.852  1.00 20.00    -0.034 C 
ATOM     42 C42  LIG A   1      17.831  10.693   3.633  1.00 20.00    -0.034 C 
ATOM     43 C43  LIG A   1      17.973  11.483   2.301  1.00 20.00    +0.025 C 
ATOM     44 N44  LIG A   1      16.682  11.766   1.639  1.00 20.00    -0.318 NA
ATOM     45 C45  LIG A   1      16.504  13.015   1.052  1.00 20.00    +0.007 C 
ATOM     46 C46  LIG A   1      15.553  13.884   1.439  1.00 20.00    -0.043 C 
ATOM     47 C47  LIG A   1      15.840  10.680   1.375  1.00 20.00    +0.243 C 
ATOM     48 O48  LIG A   1      16.197   9.519   1.628  1.00 20.00    -0.273 OA
ATOM     49 C49  LIG A   1      14.461  10.886   0.685  1.00 20.00    +0.088 C 
ATOM     50 N50  LIG A   1      14.631  11.030  -0.782  1.00 20.00    -0.320 NA
ATOM     51 H51  LIG A   1      17.580  11.619   3.813  1.00 20.00    +0.025 H 
ATOM     52 H52  LIG A   1      17.855  11.458   5.551  1.00 20.00    +0.025 H 
ATOM     53 H53  LIG A   1      19.225  11.633   4.439  1.00 20.00    +0.025 H 
ATOM     54 H54  LIG A   1      19.766  13.927   3.402  1.00 20.00    +0.025 H 
ATOM     55 H55  LIG A   1      18.207  13.710   2.617  1.00 20.00    +0.025 H 
ATOM     56 H56  LIG A   1      18.555  15.214   3.447  1.00 20.00    +0.025 H 
ATOM     57 H57  LIG A   1      16.177  13.978   3.869  1.00 20.00    +0.031 H 
ATOM     58 H58  LIG A   1      16.031  12.972   5.280  1.00 20.00    +0.031 H 
ATOM     59 H59  LIG A   1      15.970  14.670   6.771  1.00 20.00    +0.060 H 
ATOM     60 H60  LIG A   1      15.295  16.034   4.390  1.00 20.00    +0.210 HD
ATOM     61 H61  LIG A   1      17.519  16.471   4.859  1.00 20.00    +0.031 H 
ATOM     62 H62  LIG A   1      17.030  16.889   6.470  1.00 20.00    +0.031 H 
ATOM     63 H63  LIG A   1      19.609  17.373   6.226  1.00 20.00    +0.025 H 
ATOM     64 H64  LIG A   1      20.764  16.073   6.475  1.00 20.00    +0.025 H 
ATOM     65 H65  LIG A   1      19.994  16.284   4.894  1.00 20.00    +0.025 H 
ATOM     66 H66  LIG A   1      18.431  16.496   8.314  1.00 20.00    +0.025 H 
ATOM     67 H67  LIG A   1      19.500  15.100   8.432  1.00 20.00    +0.025 H 
ATOM     68 H68  LIG A   1      17.747  14.867   8.355  1.00 20.00    +0.025 H 
ATOM     69 H69  LIG A   1      11.981  10.508   1.981  1.00 20.00    +0.023 H 
ATOM     70 H70  LIG A   1      11.313  12.095   1.563  1.00 20.00    +0.023 H 
ATOM     71 H71  LIG A   1      11.761  10.967   0.279  1.00 20.00    +0.023 H 
ATOM     72 H72  LIG A   1      13.401  12.786   0.549  1.00 20.00    +0.032 H 
ATOM     73 H73  LIG A   1      12.910  12.848   3.127  1.00 20.00    +0.032 H 
ATOM     74 H74  LIG A   1      14.163  11.635   3.277  1.00 20.00    +0.032 H 
ATOM     75 H75  LIG A   1      16.049  15.021   3.615  1.00 20.00    +0.063 H 
ATOM     76 H76  LIG A   1      15.292  12.350   4.965  1.00 20.00    +0.063 H 
ATOM     77 H77  LIG A   1      18.694  14.566   3.139  1.00 20.00    +0.066 H 
ATOM     78 H78  LIG A   1      20.001  16.773   4.015  1.00 20.00    +0.066 H 
ATOM     79 H79  LIG A   1      21.057  18.096   5.865  1.00 20.00    +0.063 H 
ATOM     80 H80  LIG A   1      21.664  19.698   7.612  1.00 20.00    +0.064 H 
ATOM     81 H81  LIG A   1      19.760  20.055  10.694  1.00 20.00    +0.160 HD
ATOM     82 H82  LIG A   1      22.556  19.433   9.890  1.00 20.00    +0.049 H 
ATOM     83 H83  LIG A   1      21.648  18.686  11.212  1.00 20.00    +0.049 H 
ATOM     84 H84  LIG A   1      21.463  20.930  12.336  1.00 20.00    +0.037 H 
ATOM     85 H85  LIG A   1      22.361  21.669  11.006  1.00 20.00    +0.037 H 
ATOM     86 H86  LIG A   1      24.518  20.854  10.667  1.00 20.00    +0.189 HD
ATOM     87 H87  LIG A   1      22.703  19.411  13.845  1.00 20.00    +0.157 HD
ATOM     88 H88  LIG A   1      24.406  19.436  13.750  1.00 20.00    +0.157 HD
ATOM     89 H89  LIG A   1      18.485  18.208  10.099  1.00 20.00    +0.064 H 
ATOM     90 H90  LIG A   1      17.872  16.598   8.363  1.00 20.00    +0.063 H 
ATOM     91 H91  LIG A   1      16.892  11.279   6.159  1.00 20.00    +0.047 H 
ATOM     92 H92  LIG A   1      20.031  12.572   8.029  1.00 20.00    +0.296 HD
ATOM     93 H93  LIG A   1      19.431  11.886   4.524  1.00 20.00    +0.028 H 
ATOM     94 H94  LIG A   1      19.066  10.394   5.363  1.00 20.00    +0.028 H 
ATOM     95 H95  LIG A   1      16.779  10.548   3.907  1.00 20.00    +0.029 H 
ATOM     96 H96  LIG A   1      18.226   9.686   3.441  1.00 20.00    +0.029 H 
ATOM     97 H97  LIG A   1      18.496  12.427   2.471  1.00 20.00    +0.050 H 
ATOM     98 H98  LIG A   1      18.575  10.896   1.596  1.00 20.00    +0.050 H 
ATOM     99 H99  LIG A   1      17.243  13.293   0.304  1.00 20.00    +0.082 H 
ATOM    100 H100 LIG A   1      15.460  14.863   0.976  1.00 20.00    +0.064 H 
ATOM    101 H101 LIG A   1      13.977   9.906   0.811  1.00 20.00    +0.057 H 
ATOM    102 H102 LIG A   1      15.168  11.875  -0.963  1.00 20.00    +0.119 HD
ATOM    103 H103 LIG A   1      15.207  10.251  -1.110  1.00 20.00    +0.119 HD
ENDROOT
TORSDOF 0
                                                                                                          
ENDMDL
MODEL 7
REMARK VINA RESULT:   -10.377     11.429     14.932
REMARK INTER + INTRA:         -10.377
REMARK INTER:                 -10.377
REMARK INTRA:                   0.000
REMARK UNBOUND:                 0.000
ROOT
ATOM      1 C1   LIG A   1      19.199  29.851  16.747  1.00 20.00    -0.044 C 
ATOM      2 C2   LIG A   1      18.084  29.284  15.819  1.00 20.00    +0.047 C 
ATOM      3 C3   LIG A   1      18.319  29.886  14.411  1.00 20.00    -0.044 C 
ATOM      4 C4   LIG A   1      18.325  27.744  15.773  1.00 20.00    -0.006 C 
ATOM      5 C5   LIG A   1      17.055  26.902  15.644  1.00 20.00    +0.058 C 
ATOM      6 O6   LIG A   1      17.355  25.698  14.920  1.00 20.00    -0.393 OA
ATOM      7 C7   LIG A   1      15.935  27.651  14.943  1.00 20.00    -0.006 C 
ATOM      8 C8   LIG A   1      15.558  28.957  15.690  1.00 20.00    +0.047 C 
ATOM      9 C9   LIG A   1      14.836  29.867  14.659  1.00 20.00    -0.044 C 
ATOM     10 C10  LIG A   1      14.526  28.594  16.790  1.00 20.00    -0.044 C 
ATOM     11 N11  LIG A   1      16.740  29.533  16.380  1.00 20.00    -0.144 NA
ATOM     12 O12  LIG A   1      16.539  30.928  16.647  1.00 20.00    -0.120 OA
ATOM     13 C13  LIG A   1      23.897  24.852  15.138  1.00 20.00    -0.060 C 
ATOM     14 C14  LIG A   1      23.035  26.014  14.613  1.00 20.00    -0.016 C 
ATOM     15 C15  LIG A   1      21.631  25.945  15.260  1.00 20.00    -0.023 C 
ATOM     16 C16  LIG A   1      20.506  26.526  14.416  1.00 20.00    -0.046 C 
ATOM     17 C17  LIG A   1      19.238  26.763  14.828  1.00 20.00    -0.059 C 
ATOM     18 C18  LIG A   1      18.996  27.273  16.171  1.00 20.00    -0.054 C 
ATOM     19 C19  LIG A   1      18.228  28.359  16.438  1.00 20.00    +0.009 C 
ATOM     20 C20  LIG A   1      17.229  28.803  15.504  1.00 20.00    +0.131 A 
ATOM     21 C21  LIG A   1      17.341  29.512  14.314  1.00 20.00    -0.015 A 
ATOM     22 C22  LIG A   1      16.034  29.738  13.817  1.00 20.00    -0.015 A 
ATOM     23 C23  LIG A   1      15.169  29.164  14.723  1.00 20.00    +0.134 A 
ATOM     24 C24  LIG A   1      13.718  29.046  14.820  1.00 20.00    +0.017 A 
ATOM     25 C25  LIG A   1      12.882  29.823  14.008  1.00 20.00    -0.049 A 
ATOM     26 C26  LIG A   1      11.490  29.711  14.097  1.00 20.00    -0.038 A 
ATOM     27 C27  LIG A   1      10.898  28.811  14.988  1.00 20.00    +0.034 A 
ATOM     28 N28  LIG A   1       9.496  28.725  15.096  1.00 20.00    -0.385 NA
ATOM     29 C29  LIG A   1       8.900  29.913  15.718  1.00 20.00    +0.022 C 
ATOM     30 C30  LIG A   1       7.380  29.839  15.608  1.00 20.00    +0.022 C 
ATOM     31 C31  LIG A   1       6.765  31.059  16.253  1.00 20.00    +0.092 C 
ATOM     32 N32  LIG A   1       6.726  32.199  15.648  1.00 20.00    -0.289 NA
ATOM     33 N33  LIG A   1       6.255  30.976  17.510  1.00 20.00    -0.388 NA
ATOM     34 C34  LIG A   1      11.727  28.033  15.800  1.00 20.00    -0.038 A 
ATOM     35 C35  LIG A   1      13.120  28.152  15.720  1.00 20.00    -0.049 A 
ATOM     36 O36  LIG A   1      15.888  28.607  15.738  1.00 20.00    -0.456 OA
ATOM     37 C37  LIG A   1      18.542  29.159  17.696  1.00 20.00    +0.085 C 
ATOM     38 C38  LIG A   1      17.248  29.505  18.420  1.00 20.00    +0.311 C 
ATOM     39 O39  LIG A   1      16.577  28.733  19.091  1.00 20.00    -0.252 OA
ATOM     40 O40  LIG A   1      16.833  30.776  18.246  1.00 20.00    -0.481 OA
ATOM     41 C41  LIG A   1      19.416  30.399  17.356  1.00 20.00    -0.034 C 
ATOM     42 C42  LIG A   1      20.850  30.055  16.893  1.00 20.00    -0.034 C 
ATOM     43 C43  LIG A   1      21.142  30.195  15.373  1.00 20.00    +0.025 C 
ATOM     44 N44  LIG A   1      21.816  29.016  14.788  1.00 20.00    -0.318 NA
ATOM     45 C45  LIG A   1      21.416  28.589  13.526  1.00 20.00    +0.007 C 
ATOM     46 C46  LIG A   1      20.892  27.373  13.290  1.00 20.00    -0.043 C 
ATOM     47 C47  LIG A   1      23.006  28.589  15.389  1.00 20.00    +0.243 C 
ATOM     48 O48  LIG A   1      23.506  29.219  16.333  1.00 20.00    -0.273 OA
ATOM     49 C49  LIG A   1      23.780  27.355  14.842  1.00 20.00    +0.088 C 
ATOM     50 N50  LIG A   1      24.588  27.734  13.657  1.00 20.00    -0.320 NA
ATOM     51 H51  LIG A   1      20.189  29.517  16.418  1.00 20.00    +0.025 H 
ATOM     52 H52  LIG A   1      19.066  29.513  17.781  1.00 20.00    +0.025 H 
ATOM     53 H53  LIG A   1      19.219  30.947  16.750  1.00 20.00    +0.025 H 
ATOM     54 H54  LIG A   1      18.167  30.970  14.400  1.00 20.00    +0.025 H 
ATOM     55 H55  LIG A   1      19.350  29.708  14.082  1.00 20.00    +0.025 H 
ATOM     56 H56  LIG A   1      17.671  29.449  13.649  1.00 20.00    +0.025 H 
ATOM     57 H57  LIG A   1      19.025  27.500  14.964  1.00 20.00    +0.031 H 
ATOM     58 H58  LIG A   1      18.829  27.405  16.689  1.00 20.00    +0.031 H 
ATOM     59 H59  LIG A   1      16.722  26.588  16.639  1.00 20.00    +0.060 H 
ATOM     60 H60  LIG A   1      17.588  25.978  14.019  1.00 20.00    +0.210 HD
ATOM     61 H61  LIG A   1      16.240  27.857  13.908  1.00 20.00    +0.031 H 
ATOM     62 H62  LIG A   1      15.064  26.990  14.842  1.00 20.00    +0.031 H 
ATOM     63 H63  LIG A   1      14.035  29.316  14.152  1.00 20.00    +0.025 H 
ATOM     64 H64  LIG A   1      14.365  30.736  15.131  1.00 20.00    +0.025 H 
ATOM     65 H65  LIG A   1      15.518  30.232  13.884  1.00 20.00    +0.025 H 
ATOM     66 H66  LIG A   1      13.651  28.094  16.360  1.00 20.00    +0.025 H 
ATOM     67 H67  LIG A   1      14.162  29.485  17.314  1.00 20.00    +0.025 H 
ATOM     68 H68  LIG A   1      14.955  27.919  17.540  1.00 20.00    +0.025 H 
ATOM     69 H69  LIG A   1      24.014  24.905  16.225  1.00 20.00    +0.023 H 
ATOM     70 H70  LIG A   1      23.438  23.888  14.893  1.00 20.00    +0.023 H 
ATOM     71 H71  LIG A   1      24.894  24.866  14.683  1.00 20.00    +0.023 H 
ATOM     72 H72  LIG A   1      22.938  25.828  13.533  1.00 20.00    +0.032 H 
ATOM     73 H73  LIG A   1      21.368  24.891  15.417  1.00 20.00    +0.032 H 
ATOM     74 H74  LIG A   1      21.671  26.396  16.257  1.00 20.00    +0.032 H 
ATOM     75 H75  LIG A   1      18.529  27.120  14.081  1.00 20.00    +0.063 H 
ATOM     76 H76  LIG A   1      19.703  26.949  16.931  1.00 20.00    +0.063 H 
ATOM     77 H77  LIG A   1      18.265  29.823  13.851  1.00 20.00    +0.066 H 
ATOM     78 H78  LIG A   1      15.761  30.253  12.908  1.00 20.00    +0.066 H 
ATOM     79 H79  LIG A   1      13.299  30.530  13.295  1.00 20.00    +0.063 H 
ATOM     80 H80  LIG A   1      10.866  30.322  13.450  1.00 20.00    +0.064 H 
ATOM     81 H81  LIG A   1       9.238  27.881  15.605  1.00 20.00    +0.160 HD
ATOM     82 H82  LIG A   1       9.252  30.833  15.235  1.00 20.00    +0.049 H 
ATOM     83 H83  LIG A   1       9.193  29.963  16.775  1.00 20.00    +0.049 H 
ATOM     84 H84  LIG A   1       6.999  28.934  16.096  1.00 20.00    +0.037 H 
ATOM     85 H85  LIG A   1       7.072  29.799  14.556  1.00 20.00    +0.037 H 
ATOM     86 H86  LIG A   1       7.125  32.124  14.705  1.00 20.00    +0.189 HD
ATOM     87 H87  LIG A   1       6.622  30.275  18.140  1.00 20.00    +0.157 HD
ATOM     88 H88  LIG A   1       6.099  31.885  17.932  1.00 20.00    +0.157 HD
ATOM     89 H89  LIG A   1      11.304  27.327  16.508  1.00 20.00    +0.064 H 
ATOM     90 H90  LIG A   1      13.737  27.530  16.367  1.00 20.00    +0.063 H 
ATOM     91 H91  LIG A   1      19.110  28.553  18.417  1.00 20.00    +0.047 H 
ATOM     92 H92  LIG A   1      15.959  30.793  18.690  1.00 20.00    +0.296 HD
ATOM     93 H93  LIG A   1      18.923  31.052  16.626  1.00 20.00    +0.028 H 
ATOM     94 H94  LIG A   1      19.505  30.996  18.276  1.00 20.00    +0.028 H 
ATOM     95 H95  LIG A   1      21.119  29.061  17.268  1.00 20.00    +0.029 H 
ATOM     96 H96  LIG A   1      21.526  30.755  17.405  1.00 20.00    +0.029 H 
ATOM     97 H97  LIG A   1      20.217  30.381  14.822  1.00 20.00    +0.050 H 
ATOM     98 H98  LIG A   1      21.800  31.057  15.210  1.00 20.00    +0.050 H 
ATOM     99 H99  LIG A   1      21.472  29.335  12.737  1.00 20.00    +0.082 H 
ATOM    100 H100 LIG A   1      20.565  27.081  12.295  1.00 20.00    +0.064 H 
ATOM    101 H101 LIG A   1      24.522  27.164  15.631  1.00 20.00    +0.057 H 
ATOM    102 H102 LIG A   1      23.956  28.024  12.914  1.00 20.00    +0.119 HD
ATOM    103 H103 LIG A   1      25.138  28.561  13.901  1.00 20.00    +0.119 HD
ENDROOT
TORSDOF 0
                                                                                                          
ENDMDL
MODEL 8
REMARK VINA RESULT:   -10.289      2.832     10.369
REMARK INTER + INTRA:         -10.289
REMARK INTER:                 -10.289
REMARK INTRA:                   0.000
REMARK UNBOUND:                 0.000
ROOT
ATOM      1 C1   LIG A   1      21.756  19.641   8.532  1.00 20.00    -0.044 C 
ATOM      2 C2   LIG A   1      21.066  20.098   9.851  1.00 20.00    +0.047 C 
ATOM      3 C3   LIG A   1      19.575  20.352   9.516  1.00 20.00    -0.044 C 
ATOM      4 C4   LIG A   1      21.180  18.884  10.823  1.00 20.00    -0.006 C 
ATOM      5 C5   LIG A   1      21.332  19.257  12.298  1.00 20.00    +0.058 C 
ATOM      6 O6   LIG A   1      20.731  18.236  13.111  1.00 20.00    -0.393 OA
ATOM      7 C7   LIG A   1      20.700  20.600  12.620  1.00 20.00    -0.006 C 
ATOM      8 C8   LIG A   1      21.322  21.746  11.780  1.00 20.00    +0.047 C 
ATOM      9 C9   LIG A   1      20.293  22.910  11.783  1.00 20.00    -0.044 C 
ATOM     10 C10  LIG A   1      22.588  22.247  12.523  1.00 20.00    -0.044 C 
ATOM     11 N11  LIG A   1      21.769  21.250  10.454  1.00 20.00    -0.144 NA
ATOM     12 O12  LIG A   1      21.884  22.333   9.521  1.00 20.00    -0.120 OA
ATOM     13 C13  LIG A   1      20.163  12.828   9.370  1.00 20.00    -0.060 C 
ATOM     14 C14  LIG A   1      19.619  14.256   9.189  1.00 20.00    -0.016 C 
ATOM     15 C15  LIG A   1      20.453  15.237  10.046  1.00 20.00    -0.023 C 
ATOM     16 C16  LIG A   1      19.704  16.473  10.520  1.00 20.00    -0.046 C 
ATOM     17 C17  LIG A   1      20.251  17.563  11.109  1.00 20.00    -0.059 C 
ATOM     18 C18  LIG A   1      21.540  18.064  10.650  1.00 20.00    -0.054 C 
ATOM     19 C19  LIG A   1      21.770  19.358  10.316  1.00 20.00    +0.009 C 
ATOM     20 C20  LIG A   1      20.932  20.411  10.824  1.00 20.00    +0.131 A 
ATOM     21 C21  LIG A   1      19.659  20.825  10.452  1.00 20.00    -0.015 A 
ATOM     22 C22  LIG A   1      19.320  21.951  11.241  1.00 20.00    -0.015 A 
ATOM     23 C23  LIG A   1      20.399  22.189  12.063  1.00 20.00    +0.134 A 
ATOM     24 C24  LIG A   1      20.705  23.181  13.089  1.00 20.00    +0.017 A 
ATOM     25 C25  LIG A   1      19.924  24.334  13.224  1.00 20.00    -0.049 A 
ATOM     26 C26  LIG A   1      20.214  25.287  14.207  1.00 20.00    -0.038 A 
ATOM     27 C27  LIG A   1      21.282  25.104  15.090  1.00 20.00    +0.034 A 
ATOM     28 N28  LIG A   1      21.590  26.080  16.058  1.00 20.00    -0.385 NA
ATOM     29 C29  LIG A   1      22.133  27.311  15.472  1.00 20.00    +0.022 C 
ATOM     30 C30  LIG A   1      22.240  28.386  16.548  1.00 20.00    +0.022 C 
ATOM     31 C31  LIG A   1      22.805  29.652  15.948  1.00 20.00    +0.092 C 
ATOM     32 N32  LIG A   1      22.072  30.458  15.253  1.00 20.00    -0.289 NA
ATOM     33 N33  LIG A   1      24.119  29.952  16.114  1.00 20.00    -0.388 NA
ATOM     34 C34  LIG A   1      22.065  23.954  14.961  1.00 20.00    -0.038 A 
ATOM     35 C35  LIG A   1      21.784  23.006  13.970  1.00 20.00    -0.049 A 
ATOM     36 O36  LIG A   1      21.369  21.266  11.809  1.00 20.00    -0.456 OA
ATOM     37 C37  LIG A   1      22.865  19.645   9.296  1.00 20.00    +0.085 C 
ATOM     38 C38  LIG A   1      23.708  20.823   9.764  1.00 20.00    +0.311 C 
ATOM     39 O39  LIG A   1      24.555  20.788  10.646  1.00 20.00    -0.252 OA
ATOM     40 O40  LIG A   1      23.434  21.988   9.144  1.00 20.00    -0.481 OA
ATOM     41 C41  LIG A   1      22.257  19.839   7.877  1.00 20.00    -0.034 C 
ATOM     42 C42  LIG A   1      21.651  18.555   7.267  1.00 20.00    -0.034 C 
ATOM     43 C43  LIG A   1      20.099  18.458   7.252  1.00 20.00    +0.025 C 
ATOM     44 N44  LIG A   1      19.580  17.176   7.773  1.00 20.00    -0.318 NA
ATOM     45 C45  LIG A   1      18.448  17.204   8.580  1.00 20.00    +0.007 C 
ATOM     46 C46  LIG A   1      18.439  16.776   9.855  1.00 20.00    -0.043 C 
ATOM     47 C47  LIG A   1      20.063  15.999   7.189  1.00 20.00    +0.243 C 
ATOM     48 O48  LIG A   1      20.845  16.038   6.227  1.00 20.00    -0.273 OA
ATOM     49 C49  LIG A   1      19.575  14.605   7.678  1.00 20.00    +0.088 C 
ATOM     50 N50  LIG A   1      18.253  14.282   7.086  1.00 20.00    -0.320 NA
ATOM     51 H51  LIG A   1      21.340  18.689   8.183  1.00 20.00    +0.025 H 
ATOM     52 H52  LIG A   1      22.833  19.495   8.676  1.00 20.00    +0.025 H 
ATOM     53 H53  LIG A   1      21.619  20.364   7.719  1.00 20.00    +0.025 H 
ATOM     54 H54  LIG A   1      19.449  21.195   8.829  1.00 20.00    +0.025 H 
ATOM     55 H55  LIG A   1      19.134  19.476   9.026  1.00 20.00    +0.025 H 
ATOM     56 H56  LIG A   1      18.968  20.549  10.402  1.00 20.00    +0.025 H 
ATOM     57 H57  LIG A   1      20.321  18.215  10.687  1.00 20.00    +0.031 H 
ATOM     58 H58  LIG A   1      22.055  18.268  10.569  1.00 20.00    +0.031 H 
ATOM     59 H59  LIG A   1      22.394  19.275  12.564  1.00 20.00    +0.060 H 
ATOM     60 H60  LIG A   1      19.778  18.268  12.918  1.00 20.00    +0.210 HD
ATOM     61 H61  LIG A   1      19.616  20.530  12.459  1.00 20.00    +0.031 H 
ATOM     62 H62  LIG A   1      20.802  20.800  13.695  1.00 20.00    +0.031 H 
ATOM     63 H63  LIG A   1      19.972  23.139  12.806  1.00 20.00    +0.025 H 
ATOM     64 H64  LIG A   1      20.712  23.836  11.374  1.00 20.00    +0.025 H 
ATOM     65 H65  LIG A   1      19.393  22.664  11.210  1.00 20.00    +0.025 H 
ATOM     66 H66  LIG A   1      22.347  22.564  13.544  1.00 20.00    +0.025 H 
ATOM     67 H67  LIG A   1      23.042  23.107  12.018  1.00 20.00    +0.025 H 
ATOM     68 H68  LIG A   1      23.352  21.463  12.594  1.00 20.00    +0.025 H 
ATOM     69 H69  LIG A   1      21.210  12.759   9.054  1.00 20.00    +0.023 H 
ATOM     70 H70  LIG A   1      20.106  12.522  10.420  1.00 20.00    +0.023 H 
ATOM     71 H71  LIG A   1      19.579  12.108   8.785  1.00 20.00    +0.023 H 
ATOM     72 H72  LIG A   1      18.594  14.220   9.586  1.00 20.00    +0.032 H 
ATOM     73 H73  LIG A   1      20.775  14.719  10.959  1.00 20.00    +0.032 H 
ATOM     74 H74  LIG A   1      21.372  15.495   9.507  1.00 20.00    +0.032 H 
ATOM     75 H75  LIG A   1      19.569  18.339  11.453  1.00 20.00    +0.063 H 
ATOM     76 H76  LIG A   1      22.232  17.311  10.280  1.00 20.00    +0.063 H 
ATOM     77 H77  LIG A   1      19.040  20.359   9.700  1.00 20.00    +0.066 H 
ATOM     78 H78  LIG A   1      18.398  22.514  11.213  1.00 20.00    +0.066 H 
ATOM     79 H79  LIG A   1      19.078  24.514  12.565  1.00 20.00    +0.063 H 
ATOM     80 H80  LIG A   1      19.586  26.170  14.294  1.00 20.00    +0.064 H 
ATOM     81 H81  LIG A   1      22.230  25.694  16.750  1.00 20.00    +0.160 HD
ATOM     82 H82  LIG A   1      21.495  27.678  14.658  1.00 20.00    +0.049 H 
ATOM     83 H83  LIG A   1      23.125  27.110  15.047  1.00 20.00    +0.049 H 
ATOM     84 H84  LIG A   1      22.884  28.050  17.370  1.00 20.00    +0.037 H 
ATOM     85 H85  LIG A   1      21.253  28.604  16.974  1.00 20.00    +0.037 H 
ATOM     86 H86  LIG A   1      21.101  30.128  15.219  1.00 20.00    +0.189 HD
ATOM     87 H87  LIG A   1      24.777  29.199  16.265  1.00 20.00    +0.157 HD
ATOM     88 H88  LIG A   1      24.442  30.673  15.476  1.00 20.00    +0.157 HD
ATOM     89 H89  LIG A   1      22.907  23.780  15.624  1.00 20.00    +0.064 H 
ATOM     90 H90  LIG A   1      22.413  22.120  13.897  1.00 20.00    +0.063 H 
ATOM     91 H91  LIG A   1      23.572  18.806   9.230  1.00 20.00    +0.047 H 
ATOM     92 H92  LIG A   1      23.986  22.638   9.627  1.00 20.00    +0.296 HD
ATOM     93 H93  LIG A   1      21.524  20.655   7.861  1.00 20.00    +0.028 H 
ATOM     94 H94  LIG A   1      23.074  20.161   7.215  1.00 20.00    +0.028 H 
ATOM     95 H95  LIG A   1      22.107  17.681   7.745  1.00 20.00    +0.029 H 
ATOM     96 H96  LIG A   1      21.974  18.519   6.217  1.00 20.00    +0.029 H 
ATOM     97 H97  LIG A   1      19.659  19.276   7.828  1.00 20.00    +0.050 H 
ATOM     98 H98  LIG A   1      19.741  18.555   6.219  1.00 20.00    +0.050 H 
ATOM     99 H99  LIG A   1      17.571  17.678   8.145  1.00 20.00    +0.082 H 
ATOM    100 H100 LIG A   1      17.542  16.838  10.467  1.00 20.00    +0.064 H 
ATOM    101 H101 LIG A   1      20.274  13.915   7.182  1.00 20.00    +0.057 H 
ATOM    102 H102 LIG A   1      17.573  14.956   7.428  1.00 20.00    +0.119 HD
ATOM    103 H103 LIG A   1      18.316  14.428   6.076  1.00 20.00    +0.119 HD
ENDROOT
TORSDOF 0
                                                                                                          
ENDMDL
MODEL 9
REMARK VINA RESULT:   -10.161      3.403      5.461
REMARK INTER + INTRA:         -10.161
REMARK INTER:                 -10.161
REMARK INTRA:                   0.000
REMARK UNBOUND:                 0.000
ROOT
ATOM      1 C1   LIG A   1      22.439  23.179  13.136  1.00 20.00    -0.044 C 
ATOM      2 C2   LIG A   1      21.527  22.958  11.894  1.00 20.00    +0.047 C 
ATOM      3 C3   LIG A   1      20.144  22.504  12.425  1.00 20.00    -0.044 C 
ATOM      4 C4   LIG A   1      21.391  24.358  11.222  1.00 20.00    -0.006 C 
ATOM      5 C5   LIG A   1      21.267  24.327   9.699  1.00 20.00    +0.058 C 
ATOM      6 O6   LIG A   1      20.471  25.441   9.263  1.00 20.00    -0.393 OA
ATOM      7 C7   LIG A   1      20.648  23.034   9.197  1.00 20.00    -0.006 C 
ATOM      8 C8   LIG A   1      21.476  21.794   9.625  1.00 20.00    +0.047 C 
ATOM      9 C9   LIG A   1      20.523  20.572   9.542  1.00 20.00    -0.044 C 
ATOM     10 C10  LIG A   1      22.594  21.582   8.571  1.00 20.00    -0.044 C 
ATOM     11 N11  LIG A   1      22.150  22.031  10.927  1.00 20.00    -0.144 NA
ATOM     12 O12  LIG A   1      22.497  20.787  11.550  1.00 20.00    -0.120 OA
ATOM     13 C13  LIG A   1      20.395  29.841  14.182  1.00 20.00    -0.060 C 
ATOM     14 C14  LIG A   1      19.964  28.365  14.127  1.00 20.00    -0.016 C 
ATOM     15 C15  LIG A   1      20.659  27.671  12.932  1.00 20.00    -0.023 C 
ATOM     16 C16  LIG A   1      19.890  26.504  12.330  1.00 20.00    -0.046 C 
ATOM     17 C17  LIG A   1      20.362  25.621  11.419  1.00 20.00    -0.059 C 
ATOM     18 C18  LIG A   1      21.738  25.150  11.511  1.00 20.00    -0.054 C 
ATOM     19 C19  LIG A   1      22.090  23.841  11.491  1.00 20.00    +0.009 C 
ATOM     20 C20  LIG A   1      21.219  22.851  10.916  1.00 20.00    +0.131 A 
ATOM     21 C21  LIG A   1      20.065  22.254  11.407  1.00 20.00    -0.015 A 
ATOM     22 C22  LIG A   1      19.630  21.299  10.456  1.00 20.00    -0.015 A 
ATOM     23 C23  LIG A   1      20.537  21.342   9.420  1.00 20.00    +0.134 A 
ATOM     24 C24  LIG A   1      20.683  20.627   8.156  1.00 20.00    +0.017 A 
ATOM     25 C25  LIG A   1      19.945  19.464   7.904  1.00 20.00    -0.049 A 
ATOM     26 C26  LIG A   1      20.081  18.776   6.693  1.00 20.00    -0.038 A 
ATOM     27 C27  LIG A   1      20.945  19.241   5.697  1.00 20.00    +0.034 A 
ATOM     28 N28  LIG A   1      21.102  18.528   4.492  1.00 20.00    -0.385 NA
ATOM     29 C29  LIG A   1      21.808  17.254   4.673  1.00 20.00    +0.022 C 
ATOM     30 C30  LIG A   1      21.752  16.450   3.378  1.00 20.00    +0.022 C 
ATOM     31 C31  LIG A   1      22.482  15.141   3.561  1.00 20.00    +0.092 C 
ATOM     32 N32  LIG A   1      21.939  14.141   4.173  1.00 20.00    -0.289 NA
ATOM     33 N33  LIG A   1      23.751  15.002   3.096  1.00 20.00    -0.388 NA
ATOM     34 C34  LIG A   1      21.684  20.401   5.943  1.00 20.00    -0.038 A 
ATOM     35 C35  LIG A   1      21.558  21.083   7.159  1.00 20.00    -0.049 A 
ATOM     36 O36  LIG A   1      21.493  22.272   9.699  1.00 20.00    -0.456 OA
ATOM     37 C37  LIG A   1      23.375  23.440  12.204  1.00 20.00    +0.085 C 
ATOM     38 C38  LIG A   1      24.165  22.472  11.334  1.00 20.00    +0.311 C 
ATOM     39 O39  LIG A   1      24.820  22.772  10.346  1.00 20.00    -0.252 OA
ATOM     40 O40  LIG A   1      24.073  21.180  11.710  1.00 20.00    -0.481 OA
ATOM     41 C41  LIG A   1      23.068  22.890  13.626  1.00 20.00    -0.034 C 
ATOM     42 C42  LIG A   1      22.533  23.953  14.613  1.00 20.00    -0.034 C 
ATOM     43 C43  LIG A   1      21.012  23.904  14.931  1.00 20.00    +0.025 C 
ATOM     44 N44  LIG A   1      20.341  25.217  14.819  1.00 20.00    -0.318 NA
ATOM     45 C45  LIG A   1      19.075  25.262  14.245  1.00 20.00    +0.007 C 
ATOM     46 C46  LIG A   1      18.796  25.953  13.125  1.00 20.00    -0.043 C 
ATOM     47 C47  LIG A   1      20.873  26.278  15.560  1.00 20.00    +0.243 C 
ATOM     48 O48  LIG A   1      21.830  26.103  16.331  1.00 20.00    -0.273 OA
ATOM     49 C49  LIG A   1      20.234  27.695  15.500  1.00 20.00    +0.088 C 
ATOM     50 N50  LIG A   1      19.040  27.763  16.379  1.00 20.00    -0.320 NA
ATOM     51 H51  LIG A   1      22.056  23.992  13.763  1.00 20.00    +0.025 H 
ATOM     52 H52  LIG A   1      23.459  23.449  12.837  1.00 20.00    +0.025 H 
ATOM     53 H53  LIG A   1      22.498  22.289  13.773  1.00 20.00    +0.025 H 
ATOM     54 H54  LIG A   1      20.194  21.525  12.913  1.00 20.00    +0.025 H 
ATOM     55 H55  LIG A   1      19.766  23.211  13.175  1.00 20.00    +0.025 H 
ATOM     56 H56  LIG A   1      19.385  22.450  11.642  1.00 20.00    +0.025 H 
ATOM     57 H57  LIG A   1      20.544  24.902  11.660  1.00 20.00    +0.031 H 
ATOM     58 H58  LIG A   1      22.268  24.980  11.448  1.00 20.00    +0.031 H 
ATOM     59 H59  LIG A   1      22.257  24.462   9.248  1.00 20.00    +0.060 H 
ATOM     60 H60  LIG A   1      19.577  25.283   9.612  1.00 20.00    +0.210 HD
ATOM     61 H61  LIG A   1      19.615  22.970   9.563  1.00 20.00    +0.031 H 
ATOM     62 H62  LIG A   1      20.547  23.081   8.104  1.00 20.00    +0.031 H 
ATOM     63 H63  LIG A   1      20.018  20.541   8.569  1.00 20.00    +0.025 H 
ATOM     64 H64  LIG A   1      21.056  19.620   9.646  1.00 20.00    +0.025 H 
ATOM     65 H65  LIG A   1      19.742  20.606  10.309  1.00 20.00    +0.025 H 
ATOM     66 H66  LIG A   1      22.173  21.472   7.566  1.00 20.00    +0.025 H 
ATOM     67 H67  LIG A   1      23.178  20.677   8.775  1.00 20.00    +0.025 H 
ATOM     68 H68  LIG A   1      23.292  22.428   8.545  1.00 20.00    +0.025 H 
ATOM     69 H69  LIG A   1      21.478  29.934  14.311  1.00 20.00    +0.023 H 
ATOM     70 H70  LIG A   1      20.118  30.361  13.258  1.00 20.00    +0.023 H 
ATOM     71 H71  LIG A   1      19.903  30.363  15.012  1.00 20.00    +0.023 H 
ATOM     72 H72  LIG A   1      18.881  28.394  13.940  1.00 20.00    +0.032 H 
ATOM     73 H73  LIG A   1      20.771  28.401  12.119  1.00 20.00    +0.032 H 
ATOM     74 H74  LIG A   1      21.677  27.387  13.222  1.00 20.00    +0.032 H 
ATOM     75 H75  LIG A   1      19.663  24.879  11.035  1.00 20.00    +0.063 H 
ATOM     76 H76  LIG A   1      22.453  25.865  11.912  1.00 20.00    +0.063 H 
ATOM     77 H77  LIG A   1      19.584  22.489  12.345  1.00 20.00    +0.066 H 
ATOM     78 H78  LIG A   1      18.760  20.663  10.520  1.00 20.00    +0.066 H 
ATOM     79 H79  LIG A   1      19.254  19.071   8.646  1.00 20.00    +0.063 H 
ATOM     80 H80  LIG A   1      19.490  17.880   6.522  1.00 20.00    +0.064 H 
ATOM     81 H81  LIG A   1      21.576  19.110   3.804  1.00 20.00    +0.160 HD
ATOM     82 H82  LIG A   1      21.360  16.663   5.483  1.00 20.00    +0.049 H 
ATOM     83 H83  LIG A   1      22.853  17.446   4.946  1.00 20.00    +0.049 H 
ATOM     84 H84  LIG A   1      22.206  17.012   2.553  1.00 20.00    +0.037 H 
ATOM     85 H85  LIG A   1      20.712  16.242   3.099  1.00 20.00    +0.037 H 
ATOM     86 H86  LIG A   1      20.979  14.367   4.457  1.00 20.00    +0.189 HD
ATOM     87 H87  LIG A   1      24.330  15.827   3.005  1.00 20.00    +0.157 HD
ATOM     88 H88  LIG A   1      24.226  14.193   3.482  1.00 20.00    +0.157 HD
ATOM     89 H89  LIG A   1      22.370  20.789   5.196  1.00 20.00    +0.064 H 
ATOM     90 H90  LIG A   1      22.147  21.985   7.318  1.00 20.00    +0.063 H 
ATOM     91 H91  LIG A   1      24.042  24.305  12.332  1.00 20.00    +0.047 H 
ATOM     92 H92  LIG A   1      24.550  20.702  11.000  1.00 20.00    +0.296 HD
ATOM     93 H93  LIG A   1      22.392  22.028  13.587  1.00 20.00    +0.028 H 
ATOM     94 H94  LIG A   1      24.013  22.508  14.039  1.00 20.00    +0.028 H 
ATOM     95 H95  LIG A   1      22.845  24.947  14.275  1.00 20.00    +0.029 H 
ATOM     96 H96  LIG A   1      23.055  23.790  15.568  1.00 20.00    +0.029 H 
ATOM     97 H97  LIG A   1      20.507  23.194  14.271  1.00 20.00    +0.050 H 
ATOM     98 H98  LIG A   1      20.869  23.555  15.961  1.00 20.00    +0.050 H 
ATOM     99 H99  LIG A   1      18.324  24.628  14.711  1.00 20.00    +0.082 H 
ATOM    100 H100 LIG A   1      17.801  25.944  12.688  1.00 20.00    +0.064 H 
ATOM    101 H101 LIG A   1      20.984  28.322  16.006  1.00 20.00    +0.057 H 
ATOM    102 H102 LIG A   1      18.338  27.120  16.020  1.00 20.00    +0.119 HD
ATOM    103 H103 LIG A   1      19.306  27.409  17.300  1.00 20.00    +0.119 HD
ENDROOT
TORSDOF 0
                                                                                                          
ENDMDL
