MODEL 1
REMARK VINA RESULT:   -11.084      0.000      0.000
REMARK INTER + INTRA:         -11.084
REMARK INTER:                 -11.084
REMARK INTRA:                   0.000
REMARK UNBOUND:                 0.000
ROOT
ATOM      1 C1   LIG A   1      19.755  19.968   8.021  1.00 20.00    -0.044 C 
ATOM      2 C2   LIG A   1      19.894  18.419   7.950  1.00 20.00    +0.047 C 
ATOM      3 C3   LIG A   1      21.343  18.076   8.374  1.00 20.00    -0.044 C 
ATOM      4 C4   LIG A   1      18.901  17.857   9.015  1.00 20.00    -0.006 C 
ATOM      5 C5   LIG A   1      18.188  16.573   8.593  1.00 20.00    +0.058 C 
ATOM      6 O6   LIG A   1      17.781  15.845   9.761  1.00 20.00    -0.393 OA
ATOM      7 C7   LIG A   1      19.082  15.703   7.732  1.00 20.00    -0.006 C 
ATOM      8 C8   LIG A   1      19.461  16.430   6.414  1.00 20.00    +0.047 C 
ATOM      9 C9   LIG A   1      20.758  15.765   5.881  1.00 20.00    -0.044 C 
ATOM     10 C10  LIG A   1      18.340  16.147   5.378  1.00 20.00    -0.044 C 
ATOM     11 N11  LIG A   1      19.495  17.904   6.622  1.00 20.00    -0.144 NA
ATOM     12 O12  LIG A   1      20.236  18.544   5.573  1.00 20.00    -0.120 OA
ATOM     13 N13  LIG A   1      18.798  24.940  15.014  1.00 20.00    -0.289 NA
ATOM     14 C14  LIG A   1      19.587  25.867  14.578  1.00 20.00    +0.092 C 
ATOM     15 N15  LIG A   1      19.464  27.117  15.097  1.00 20.00    -0.388 NA
ATOM     16 C16  LIG A   1      20.616  25.591  13.502  1.00 20.00    +0.022 C 
ATOM     17 C17  LIG A   1      21.555  24.454  13.896  1.00 20.00    +0.022 C 
ATOM     18 N18  LIG A   1      20.875  23.157  13.861  1.00 20.00    -0.384 NA
ATOM     19 C19  LIG A   1      20.862  22.359  12.716  1.00 20.00    +0.038 A 
ATOM     20 C20  LIG A   1      21.135  22.836  11.428  1.00 20.00    -0.038 A 
ATOM     21 C21  LIG A   1      21.031  22.002  10.307  1.00 20.00    -0.045 A 
ATOM     22 C22  LIG A   1      20.622  20.678  10.462  1.00 20.00    +0.065 A 
ATOM     23 C23  LIG A   1      20.502  19.781   9.298  1.00 20.00    +0.200 C 
ATOM     24 O24  LIG A   1      20.773  20.182   8.172  1.00 20.00    -0.288 OA
ATOM     25 C25  LIG A   1      20.046  18.389   9.576  1.00 20.00    +0.065 C 
ATOM     26 C26  LIG A   1      19.859  17.389   8.508  1.00 20.00    -0.011 A 
ATOM     27 C27  LIG A   1      20.399  16.103   8.615  1.00 20.00    -0.052 A 
ATOM     28 C28  LIG A   1      20.200  15.159   7.600  1.00 20.00    -0.038 A 
ATOM     29 C29  LIG A   1      19.486  15.474   6.435  1.00 20.00    +0.034 A 
ATOM     30 N30  LIG A   1      19.268  14.460   5.496  1.00 20.00    -0.385 NA
ATOM     31 C31  LIG A   1      18.806  14.801   4.155  1.00 20.00    +0.016 C 
ATOM     32 C32  LIG A   1      18.707  13.545   3.286  1.00 20.00    -0.023 C 
ATOM     33 C33  LIG A   1      17.581  12.614   3.750  1.00 20.00    -0.003 C 
ATOM     34 N34  LIG A   1      17.375  11.461   2.867  1.00 20.00    -0.317 NA
ATOM     35 C35  LIG A   1      18.439  10.465   2.983  1.00 20.00    -0.005 C 
ATOM     36 C36  LIG A   1      18.090   9.186   2.216  1.00 20.00    -0.039 C 
ATOM     37 C37  LIG A   1      17.720   9.330   0.732  1.00 20.00    -0.040 C 
ATOM     38 C38  LIG A   1      18.735  10.085  -0.128  1.00 20.00    -0.008 C 
ATOM     39 N39  LIG A   1      18.559  11.534  -0.040  1.00 20.00    -0.330 NA
ATOM     40 C40  LIG A   1      18.923  16.750   6.350  1.00 20.00    -0.038 A 
ATOM     41 C41  LIG A   1      19.119  17.701   7.362  1.00 20.00    -0.052 A 
ATOM     42 C42  LIG A   1      19.773  18.081  10.854  1.00 20.00    +0.103 C 
ATOM     43 O43  LIG A   1      19.886  18.910  11.945  1.00 20.00    -0.463 OA
ATOM     44 C44  LIG A   1      20.311  20.195  11.725  1.00 20.00    +0.139 A 
ATOM     45 C45  LIG A   1      20.419  21.032  12.840  1.00 20.00    +0.005 A 
ATOM     46 H46  LIG A   1      19.886  20.325   9.050  1.00 20.00    +0.025 H 
ATOM     47 H47  LIG A   1      18.763  20.294   7.686  1.00 20.00    +0.025 H 
ATOM     48 H48  LIG A   1      20.506  20.481   7.408  1.00 20.00    +0.025 H 
ATOM     49 H49  LIG A   1      22.078  18.431   7.643  1.00 20.00    +0.025 H 
ATOM     50 H50  LIG A   1      21.590  18.554   9.329  1.00 20.00    +0.025 H 
ATOM     51 H51  LIG A   1      21.499  17.004   8.515  1.00 20.00    +0.025 H 
ATOM     52 H52  LIG A   1      19.422  17.696   9.969  1.00 20.00    +0.031 H 
ATOM     53 H53  LIG A   1      18.117  18.590   9.246  1.00 20.00    +0.031 H 
ATOM     54 H54  LIG A   1      17.270  16.820   8.046  1.00 20.00    +0.060 H 
ATOM     55 H55  LIG A   1      17.224  16.456  10.269  1.00 20.00    +0.210 HD
ATOM     56 H56  LIG A   1      19.972  15.429   8.313  1.00 20.00    +0.031 H 
ATOM     57 H57  LIG A   1      18.582  14.747   7.527  1.00 20.00    +0.031 H 
ATOM     58 H58  LIG A   1      20.643  14.674   5.843  1.00 20.00    +0.025 H 
ATOM     59 H59  LIG A   1      21.006  16.090   4.865  1.00 20.00    +0.025 H 
ATOM     60 H60  LIG A   1      21.621  15.975   6.520  1.00 20.00    +0.025 H 
ATOM     61 H61  LIG A   1      18.201  15.068   5.233  1.00 20.00    +0.025 H 
ATOM     62 H62  LIG A   1      18.573  16.574   4.396  1.00 20.00    +0.025 H 
ATOM     63 H63  LIG A   1      17.377  16.559   5.700  1.00 20.00    +0.025 H 
ATOM     64 H64  LIG A   1      19.020  24.061  14.511  1.00 20.00    +0.189 HD
ATOM     65 H65  LIG A   1      18.896  27.129  15.939  1.00 20.00    +0.157 HD
ATOM     66 H66  LIG A   1      20.285  27.704  15.140  1.00 20.00    +0.157 HD
ATOM     67 H67  LIG A   1      20.079  25.373  12.572  1.00 20.00    +0.037 H 
ATOM     68 H68  LIG A   1      21.204  26.502  13.338  1.00 20.00    +0.037 H 
ATOM     69 H69  LIG A   1      21.909  24.620  14.921  1.00 20.00    +0.049 H 
ATOM     70 H70  LIG A   1      22.449  24.449  13.262  1.00 20.00    +0.049 H 
ATOM     71 H71  LIG A   1      21.036  22.611  14.708  1.00 20.00    +0.160 HD
ATOM     72 H72  LIG A   1      21.434  23.865  11.260  1.00 20.00    +0.064 H 
ATOM     73 H73  LIG A   1      21.260  22.395   9.318  1.00 20.00    +0.063 H 
ATOM     74 H74  LIG A   1      20.981  15.814   9.486  1.00 20.00    +0.063 H 
ATOM     75 H75  LIG A   1      20.614  14.162   7.729  1.00 20.00    +0.064 H 
ATOM     76 H76  LIG A   1      20.036  13.792   5.494  1.00 20.00    +0.160 HD
ATOM     77 H77  LIG A   1      17.825  15.288   4.192  1.00 20.00    +0.049 H 
ATOM     78 H78  LIG A   1      19.517  15.494   3.687  1.00 20.00    +0.049 H 
ATOM     79 H79  LIG A   1      19.668  13.019   3.293  1.00 20.00    +0.030 H 
ATOM     80 H80  LIG A   1      18.516  13.856   2.252  1.00 20.00    +0.030 H 
ATOM     81 H81  LIG A   1      16.642  13.180   3.764  1.00 20.00    +0.043 H 
ATOM     82 H82  LIG A   1      17.747  12.275   4.780  1.00 20.00    +0.043 H 
ATOM     83 H83  LIG A   1      17.383  11.784   1.893  1.00 20.00    +0.122 HD
ATOM     84 H84  LIG A   1      19.392  10.862   2.615  1.00 20.00    +0.043 H 
ATOM     85 H85  LIG A   1      18.587  10.195   4.035  1.00 20.00    +0.043 H 
ATOM     86 H86  LIG A   1      18.945   8.503   2.294  1.00 20.00    +0.028 H 
ATOM     87 H87  LIG A   1      17.257   8.684   2.723  1.00 20.00    +0.028 H 
ATOM     88 H88  LIG A   1      16.726   9.785   0.636  1.00 20.00    +0.028 H 
ATOM     89 H89  LIG A   1      17.620   8.316   0.324  1.00 20.00    +0.028 H 
ATOM     90 H90  LIG A   1      19.756   9.817   0.163  1.00 20.00    +0.043 H 
ATOM     91 H91  LIG A   1      18.608   9.790  -1.175  1.00 20.00    +0.043 H 
ATOM     92 H92  LIG A   1      17.659  11.778  -0.457  1.00 20.00    +0.118 HD
ATOM     93 H93  LIG A   1      19.261  11.985  -0.626  1.00 20.00    +0.118 HD
ATOM     94 H94  LIG A   1      18.321  17.043   5.496  1.00 20.00    +0.064 H 
ATOM     95 H95  LIG A   1      18.678  18.688   7.242  1.00 20.00    +0.063 H 
ATOM     96 H96  LIG A   1      19.409  17.113  11.179  1.00 20.00    +0.105 H 
ATOM     97 H97  LIG A   1      20.147  20.638  13.816  1.00 20.00    +0.068 H 
ENDROOT
TORSDOF 0
                                                                                                    
ENDMDL
MODEL 2
REMARK VINA RESULT:   -10.778      2.873     11.638
REMARK INTER + INTRA:         -10.778
REMARK INTER:                 -10.778
REMARK INTRA:                   0.000
REMARK UNBOUND:                 0.000
ROOT
ATOM      1 C1   LIG A   1      18.107  16.912   9.166  1.00 20.00    -0.044 C 
ATOM      2 C2   LIG A   1      19.462  17.675   9.075  1.00 20.00    +0.047 C 
ATOM      3 C3   LIG A   1      20.523  16.657   8.591  1.00 20.00    -0.044 C 
ATOM      4 C4   LIG A   1      19.259  18.767   7.978  1.00 20.00    -0.006 C 
ATOM      5 C5   LIG A   1      19.947  20.098   8.282  1.00 20.00    +0.058 C 
ATOM      6 O6   LIG A   1      20.203  20.796   7.054  1.00 20.00    -0.393 OA
ATOM      7 C7   LIG A   1      21.248  19.888   9.032  1.00 20.00    -0.006 C 
ATOM      8 C8   LIG A   1      20.992  19.220  10.410  1.00 20.00    +0.047 C 
ATOM      9 C9   LIG A   1      22.321  18.548  10.847  1.00 20.00    -0.044 C 
ATOM     10 C10  LIG A   1      20.687  20.347  11.433  1.00 20.00    -0.044 C 
ATOM     11 N11  LIG A   1      19.784  18.350  10.352  1.00 20.00    -0.144 NA
ATOM     12 O12  LIG A   1      19.778  17.422  11.446  1.00 20.00    -0.120 OA
ATOM     13 N13  LIG A   1      12.832  14.603   2.734  1.00 20.00    -0.289 NA
ATOM     14 C14  LIG A   1      12.560  13.447   3.246  1.00 20.00    +0.092 C 
ATOM     15 N15  LIG A   1      11.418  12.821   2.859  1.00 20.00    -0.388 NA
ATOM     16 C16  LIG A   1      13.470  12.799   4.269  1.00 20.00    +0.022 C 
ATOM     17 C17  LIG A   1      14.896  12.651   3.743  1.00 20.00    +0.022 C 
ATOM     18 N18  LIG A   1      15.577  13.945   3.659  1.00 20.00    -0.384 NA
ATOM     19 C19  LIG A   1      16.331  14.454   4.717  1.00 20.00    +0.038 A 
ATOM     20 C20  LIG A   1      16.217  14.014   6.042  1.00 20.00    -0.038 A 
ATOM     21 C21  LIG A   1      16.948  14.617   7.074  1.00 20.00    -0.045 A 
ATOM     22 C22  LIG A   1      17.786  15.695   6.793  1.00 20.00    +0.065 A 
ATOM     23 C23  LIG A   1      18.562  16.349   7.861  1.00 20.00    +0.200 C 
ATOM     24 O24  LIG A   1      18.494  15.946   9.017  1.00 20.00    -0.288 OA
ATOM     25 C25  LIG A   1      19.418  17.500   7.453  1.00 20.00    +0.065 C 
ATOM     26 C26  LIG A   1      20.232  18.263   8.417  1.00 20.00    -0.011 A 
ATOM     27 C27  LIG A   1      21.581  18.540   8.169  1.00 20.00    -0.052 A 
ATOM     28 C28  LIG A   1      22.338  19.279   9.087  1.00 20.00    -0.038 A 
ATOM     29 C29  LIG A   1      21.786  19.738  10.291  1.00 20.00    +0.034 A 
ATOM     30 N30  LIG A   1      22.583  20.530  11.126  1.00 20.00    -0.385 NA
ATOM     31 C31  LIG A   1      22.169  20.773  12.504  1.00 20.00    +0.016 C 
ATOM     32 C32  LIG A   1      23.224  21.601  13.242  1.00 20.00    -0.023 C 
ATOM     33 C33  LIG A   1      23.305  23.035  12.708  1.00 20.00    -0.003 C 
ATOM     34 N34  LIG A   1      24.216  23.892  13.474  1.00 20.00    -0.317 NA
ATOM     35 C35  LIG A   1      25.623  23.573  13.236  1.00 20.00    -0.005 C 
ATOM     36 C36  LIG A   1      26.546  24.615  13.876  1.00 20.00    -0.039 C 
ATOM     37 C37  LIG A   1      26.359  24.900  15.374  1.00 20.00    -0.040 C 
ATOM     38 C38  LIG A   1      26.397  23.673  16.286  1.00 20.00    -0.008 C 
ATOM     39 N39  LIG A   1      25.102  22.997  16.349  1.00 20.00    -0.330 NA
ATOM     40 C40  LIG A   1      20.431  19.485  10.516  1.00 20.00    -0.038 A 
ATOM     41 C41  LIG A   1      19.667  18.744   9.602  1.00 20.00    -0.052 A 
ATOM     42 C42  LIG A   1      19.395  17.845   6.156  1.00 20.00    +0.103 C 
ATOM     43 O43  LIG A   1      18.677  17.238   5.152  1.00 20.00    -0.463 OA
ATOM     44 C44  LIG A   1      17.886  16.172   5.493  1.00 20.00    +0.139 A 
ATOM     45 C45  LIG A   1      17.156  15.564   4.467  1.00 20.00    +0.005 A 
ATOM     46 H46  LIG A   1      17.792  16.560   8.176  1.00 20.00    +0.025 H 
ATOM     47 H47  LIG A   1      17.311  17.559   9.551  1.00 20.00    +0.025 H 
ATOM     48 H48  LIG A   1      18.170  16.029   9.812  1.00 20.00    +0.025 H 
ATOM     49 H49  LIG A   1      20.717  15.881   9.340  1.00 20.00    +0.025 H 
ATOM     50 H50  LIG A   1      20.181  16.144   7.684  1.00 20.00    +0.025 H 
ATOM     51 H51  LIG A   1      21.476  17.128   8.339  1.00 20.00    +0.025 H 
ATOM     52 H52  LIG A   1      19.596  18.389   7.003  1.00 20.00    +0.031 H 
ATOM     53 H53  LIG A   1      18.193  18.990   7.839  1.00 20.00    +0.031 H 
ATOM     54 H54  LIG A   1      19.277  20.738   8.868  1.00 20.00    +0.060 H 
ATOM     55 H55  LIG A   1      19.339  20.889   6.621  1.00 20.00    +0.210 HD
ATOM     56 H56  LIG A   1      21.920  19.284   8.410  1.00 20.00    +0.031 H 
ATOM     57 H57  LIG A   1      21.766  20.848   9.149  1.00 20.00    +0.031 H 
ATOM     58 H58  LIG A   1      23.152  19.261  10.777  1.00 20.00    +0.025 H 
ATOM     59 H59  LIG A   1      22.291  18.203  11.886  1.00 20.00    +0.025 H 
ATOM     60 H60  LIG A   1      22.577  17.692  10.216  1.00 20.00    +0.025 H 
ATOM     61 H61  LIG A   1      21.506  21.076  11.471  1.00 20.00    +0.025 H 
ATOM     62 H62  LIG A   1      20.561  19.954  12.449  1.00 20.00    +0.025 H 
ATOM     63 H63  LIG A   1      19.774  20.894  11.173  1.00 20.00    +0.025 H 
ATOM     64 H64  LIG A   1      13.725  14.937   3.140  1.00 20.00    +0.189 HD
ATOM     65 H65  LIG A   1      11.007  13.247   2.034  1.00 20.00    +0.157 HD
ATOM     66 H66  LIG A   1      11.398  11.810   2.860  1.00 20.00    +0.157 HD
ATOM     67 H67  LIG A   1      13.434  13.404   5.181  1.00 20.00    +0.037 H 
ATOM     68 H68  LIG A   1      13.072  11.807   4.513  1.00 20.00    +0.037 H 
ATOM     69 H69  LIG A   1      14.863  12.222   2.733  1.00 20.00    +0.049 H 
ATOM     70 H70  LIG A   1      15.466  11.943   4.355  1.00 20.00    +0.049 H 
ATOM     71 H71  LIG A   1      16.035  14.086   2.758  1.00 20.00    +0.160 HD
ATOM     72 H72  LIG A   1      15.559  13.193   6.307  1.00 20.00    +0.064 H 
ATOM     73 H73  LIG A   1      16.849  14.248   8.093  1.00 20.00    +0.063 H 
ATOM     74 H74  LIG A   1      22.065  18.187   7.262  1.00 20.00    +0.063 H 
ATOM     75 H75  LIG A   1      23.377  19.496   8.849  1.00 20.00    +0.064 H 
ATOM     76 H76  LIG A   1      23.564  20.274  11.046  1.00 20.00    +0.160 HD
ATOM     77 H77  LIG A   1      21.211  21.305  12.536  1.00 20.00    +0.049 H 
ATOM     78 H78  LIG A   1      22.048  19.816  13.026  1.00 20.00    +0.049 H 
ATOM     79 H79  LIG A   1      24.198  21.105  13.163  1.00 20.00    +0.030 H 
ATOM     80 H80  LIG A   1      22.959  21.626  14.307  1.00 20.00    +0.030 H 
ATOM     81 H81  LIG A   1      22.309  23.489  12.770  1.00 20.00    +0.043 H 
ATOM     82 H82  LIG A   1      23.579  23.047  11.646  1.00 20.00    +0.043 H 
ATOM     83 H83  LIG A   1      24.048  23.744  14.475  1.00 20.00    +0.122 HD
ATOM     84 H84  LIG A   1      25.872  22.579  13.624  1.00 20.00    +0.043 H 
ATOM     85 H85  LIG A   1      25.829  23.560  12.159  1.00 20.00    +0.043 H 
ATOM     86 H86  LIG A   1      27.582  24.292  13.712  1.00 20.00    +0.028 H 
ATOM     87 H87  LIG A   1      26.437  25.564  13.336  1.00 20.00    +0.028 H 
ATOM     88 H88  LIG A   1      25.433  25.466  15.535  1.00 20.00    +0.028 H 
ATOM     89 H89  LIG A   1      27.172  25.573  15.678  1.00 20.00    +0.028 H 
ATOM     90 H90  LIG A   1      27.166  22.970  15.949  1.00 20.00    +0.043 H 
ATOM     91 H91  LIG A   1      26.666  23.988  17.300  1.00 20.00    +0.043 H 
ATOM     92 H92  LIG A   1      24.432  23.617  16.806  1.00 20.00    +0.118 HD
ATOM     93 H93  LIG A   1      25.185  22.187  16.964  1.00 20.00    +0.118 HD
ATOM     94 H94  LIG A   1      19.931  19.851  11.407  1.00 20.00    +0.064 H 
ATOM     95 H95  LIG A   1      18.620  18.555   9.831  1.00 20.00    +0.063 H 
ATOM     96 H96  LIG A   1      19.951  18.678   5.741  1.00 20.00    +0.105 H 
ATOM     97 H97  LIG A   1      17.232  15.970   3.462  1.00 20.00    +0.068 H 
ENDROOT
TORSDOF 0
                                                                                                    
ENDMDL
MODEL 3
REMARK VINA RESULT:   -10.626      2.791     12.792
REMARK INTER + INTRA:         -10.626
REMARK INTER:                 -10.626
REMARK INTRA:                   0.000
REMARK UNBOUND:                 0.000
ROOT
ATOM      1 C1   LIG A   1      19.206  20.122  10.420  1.00 20.00    -0.044 C 
ATOM      2 C2   LIG A   1      20.315  21.212  10.358  1.00 20.00    +0.047 C 
ATOM      3 C3   LIG A   1      21.663  20.475  10.161  1.00 20.00    -0.044 C 
ATOM      4 C4   LIG A   1      20.003  22.060   9.085  1.00 20.00    -0.006 C 
ATOM      5 C5   LIG A   1      20.272  23.556   9.246  1.00 20.00    +0.058 C 
ATOM      6 O6   LIG A   1      20.518  24.139   7.958  1.00 20.00    -0.393 OA
ATOM      7 C7   LIG A   1      21.457  23.809  10.157  1.00 20.00    -0.006 C 
ATOM      8 C8   LIG A   1      21.181  23.272  11.588  1.00 20.00    +0.047 C 
ATOM      9 C9   LIG A   1      22.558  23.054  12.268  1.00 20.00    -0.044 C 
ATOM     10 C10  LIG A   1      20.448  24.389  12.378  1.00 20.00    -0.044 C 
ATOM     11 N11  LIG A   1      20.260  22.103  11.537  1.00 20.00    -0.144 NA
ATOM     12 O12  LIG A   1      20.332  21.352  12.758  1.00 20.00    -0.120 OA
ATOM     13 N13  LIG A   1      15.716  15.663   3.903  1.00 20.00    -0.289 NA
ATOM     14 C14  LIG A   1      15.679  14.550   4.560  1.00 20.00    +0.092 C 
ATOM     15 N15  LIG A   1      14.807  13.589   4.156  1.00 20.00    -0.388 NA
ATOM     16 C16  LIG A   1      16.564  14.311   5.767  1.00 20.00    +0.022 C 
ATOM     17 C17  LIG A   1      18.041  14.499   5.429  1.00 20.00    +0.022 C 
ATOM     18 N18  LIG A   1      18.370  15.910   5.215  1.00 20.00    -0.384 NA
ATOM     19 C19  LIG A   1      18.802  16.735   6.254  1.00 20.00    +0.038 A 
ATOM     20 C20  LIG A   1      18.610  16.449   7.612  1.00 20.00    -0.038 A 
ATOM     21 C21  LIG A   1      19.000  17.354   8.608  1.00 20.00    -0.045 A 
ATOM     22 C22  LIG A   1      19.564  18.578   8.251  1.00 20.00    +0.065 A 
ATOM     23 C23  LIG A   1      19.978  19.549   9.280  1.00 20.00    +0.200 C 
ATOM     24 O24  LIG A   1      19.846  19.290  10.471  1.00 20.00    -0.288 OA
ATOM     25 C25  LIG A   1      20.560  20.831   8.789  1.00 20.00    +0.065 C 
ATOM     26 C26  LIG A   1      20.998  21.903   9.702  1.00 20.00    -0.011 A 
ATOM     27 C27  LIG A   1      22.251  22.509   9.562  1.00 20.00    -0.052 A 
ATOM     28 C28  LIG A   1      22.647  23.537  10.427  1.00 20.00    -0.038 A 
ATOM     29 C29  LIG A   1      21.824  23.971  11.475  1.00 20.00    +0.034 A 
ATOM     30 N30  LIG A   1      22.256  25.050  12.255  1.00 20.00    -0.385 NA
ATOM     31 C31  LIG A   1      21.594  25.338  13.523  1.00 20.00    +0.016 C 
ATOM     32 C32  LIG A   1      22.279  26.511  14.230  1.00 20.00    -0.023 C 
ATOM     33 C33  LIG A   1      22.066  27.834  13.486  1.00 20.00    -0.003 C 
ATOM     34 N34  LIG A   1      22.602  28.998  14.200  1.00 20.00    -0.317 NA
ATOM     35 C35  LIG A   1      24.062  29.053  14.171  1.00 20.00    -0.005 C 
ATOM     36 C36  LIG A   1      24.580  30.380  14.733  1.00 20.00    -0.039 C 
ATOM     37 C37  LIG A   1      24.107  30.787  16.137  1.00 20.00    -0.040 C 
ATOM     38 C38  LIG A   1      24.324  29.741  17.232  1.00 20.00    -0.008 C 
ATOM     39 N39  LIG A   1      23.253  28.747  17.261  1.00 20.00    -0.330 NA
ATOM     40 C40  LIG A   1      20.561  23.383  11.589  1.00 20.00    -0.038 A 
ATOM     41 C41  LIG A   1      20.158  22.353  10.727  1.00 20.00    -0.052 A 
ATOM     42 C42  LIG A   1      20.640  20.992   7.459  1.00 20.00    +0.103 C 
ATOM     43 O43  LIG A   1      20.260  20.091   6.493  1.00 20.00    -0.463 OA
ATOM     44 C44  LIG A   1      19.729  18.898   6.911  1.00 20.00    +0.139 A 
ATOM     45 C45  LIG A   1      19.341  17.990   5.922  1.00 20.00    +0.005 A 
ATOM     46 H46  LIG A   1      19.142  19.575   9.471  1.00 20.00    +0.025 H 
ATOM     47 H47  LIG A   1      18.222  20.566  10.609  1.00 20.00    +0.025 H 
ATOM     48 H48  LIG A   1      19.398  19.378  11.203  1.00 20.00    +0.025 H 
ATOM     49 H49  LIG A   1      21.938  19.883  11.040  1.00 20.00    +0.025 H 
ATOM     50 H50  LIG A   1      21.603  19.779   9.316  1.00 20.00    +0.025 H 
ATOM     51 H51  LIG A   1      22.489  21.156   9.942  1.00 20.00    +0.025 H 
ATOM     52 H52  LIG A   1      20.566  21.671   8.226  1.00 20.00    +0.031 H 
ATOM     53 H53  LIG A   1      18.948  21.960   8.797  1.00 20.00    +0.031 H 
ATOM     54 H54  LIG A   1      19.381  24.053   9.646  1.00 20.00    +0.060 H 
ATOM     55 H55  LIG A   1      19.733  23.935   7.424  1.00 20.00    +0.210 HD
ATOM     56 H56  LIG A   1      22.347  23.342   9.716  1.00 20.00    +0.031 H 
ATOM     57 H57  LIG A   1      21.687  24.882  10.175  1.00 20.00    +0.031 H 
ATOM     58 H58  LIG A   1      23.179  23.955  12.177  1.00 20.00    +0.025 H 
ATOM     59 H59  LIG A   1      22.465  22.846  13.340  1.00 20.00    +0.025 H 
ATOM     60 H60  LIG A   1      23.117  22.231  11.814  1.00 20.00    +0.025 H 
ATOM     61 H61  LIG A   1      21.036  25.315  12.388  1.00 20.00    +0.025 H 
ATOM     62 H62  LIG A   1      20.279  24.107  13.424  1.00 20.00    +0.025 H 
ATOM     63 H63  LIG A   1      19.473  24.626  11.936  1.00 20.00    +0.025 H 
ATOM     64 H64  LIG A   1      16.423  16.279   4.346  1.00 20.00    +0.189 HD
ATOM     65 H65  LIG A   1      14.427  13.779   3.234  1.00 20.00    +0.157 HD
ATOM     66 H66  LIG A   1      15.048  12.621   4.316  1.00 20.00    +0.157 HD
ATOM     67 H67  LIG A   1      16.238  14.991   6.562  1.00 20.00    +0.037 H 
ATOM     68 H68  LIG A   1      16.403  13.286   6.121  1.00 20.00    +0.037 H 
ATOM     69 H69  LIG A   1      18.269  13.956   4.504  1.00 20.00    +0.049 H 
ATOM     70 H70  LIG A   1      18.677  14.058   6.206  1.00 20.00    +0.049 H 
ATOM     71 H71  LIG A   1      18.904  16.059   4.359  1.00 20.00    +0.160 HD
ATOM     72 H72  LIG A   1      18.154  15.517   7.931  1.00 20.00    +0.064 H 
ATOM     73 H73  LIG A   1      18.850  17.101   9.656  1.00 20.00    +0.063 H 
ATOM     74 H74  LIG A   1      22.938  22.194   8.781  1.00 20.00    +0.063 H 
ATOM     75 H75  LIG A   1      23.618  24.001  10.272  1.00 20.00    +0.064 H 
ATOM     76 H76  LIG A   1      23.271  25.067  12.324  1.00 20.00    +0.160 HD
ATOM     77 H77  LIG A   1      20.538  25.585  13.365  1.00 20.00    +0.049 H 
ATOM     78 H78  LIG A   1      21.649  24.458  14.174  1.00 20.00    +0.049 H 
ATOM     79 H79  LIG A   1      23.348  26.297  14.338  1.00 20.00    +0.030 H 
ATOM     80 H80  LIG A   1      21.862  26.594  15.241  1.00 20.00    +0.030 H 
ATOM     81 H81  LIG A   1      20.988  27.999  13.366  1.00 20.00    +0.043 H 
ATOM     82 H82  LIG A   1      22.482  27.789  12.472  1.00 20.00    +0.043 H 
ATOM     83 H83  LIG A   1      22.331  28.935  15.187  1.00 20.00    +0.122 HD
ATOM     84 H84  LIG A   1      24.499  28.223  14.738  1.00 20.00    +0.043 H 
ATOM     85 H85  LIG A   1      24.421  28.963  13.139  1.00 20.00    +0.043 H 
ATOM     86 H86  LIG A   1      25.676  30.339  14.737  1.00 20.00    +0.028 H 
ATOM     87 H87  LIG A   1      24.312  31.188  14.041  1.00 20.00    +0.028 H 
ATOM     88 H88  LIG A   1      23.053  31.090  16.103  1.00 20.00    +0.028 H 
ATOM     89 H89  LIG A   1      24.664  31.690  16.417  1.00 20.00    +0.028 H 
ATOM     90 H90  LIG A   1      25.290  29.242  17.097  1.00 20.00    +0.043 H 
ATOM     91 H91  LIG A   1      24.349  30.242  18.206  1.00 20.00    +0.043 H 
ATOM     92 H92  LIG A   1      22.386  29.209  17.536  1.00 20.00    +0.118 HD
ATOM     93 H93  LIG A   1      23.450  28.074  18.002  1.00 20.00    +0.118 HD
ATOM     94 H94  LIG A   1      19.858  23.705  12.350  1.00 20.00    +0.064 H 
ATOM     95 H95  LIG A   1      19.173  21.911  10.867  1.00 20.00    +0.063 H 
ATOM     96 H96  LIG A   1      21.018  21.889   6.980  1.00 20.00    +0.105 H 
ATOM     97 H97  LIG A   1      19.457  18.273   4.879  1.00 20.00    +0.068 H 
ENDROOT
TORSDOF 0
                                                                                                    
ENDMDL
MODEL 4
REMARK VINA RESULT:   -10.482      1.785      2.194
REMARK INTER + INTRA:         -10.482
REMARK INTER:                 -10.482
REMARK INTRA:                   0.000
REMARK UNBOUND:                 0.000
ROOT
ATOM      1 C1   LIG A   1      21.036  21.153   9.017  1.00 20.00    -0.044 C 
ATOM      2 C2   LIG A   1      20.821  19.613   8.932  1.00 20.00    +0.047 C 
ATOM      3 C3   LIG A   1      22.179  18.948   9.267  1.00 20.00    -0.044 C 
ATOM      4 C4   LIG A   1      19.790  19.268  10.051  1.00 20.00    -0.006 C 
ATOM      5 C5   LIG A   1      18.785  18.183   9.666  1.00 20.00    +0.058 C 
ATOM      6 O6   LIG A   1      18.293  17.543  10.853  1.00 20.00    -0.393 OA
ATOM      7 C7   LIG A   1      19.412  17.150   8.750  1.00 20.00    -0.006 C 
ATOM      8 C8   LIG A   1      19.869  17.797   7.415  1.00 20.00    +0.047 C 
ATOM      9 C9   LIG A   1      20.952  16.870   6.803  1.00 20.00    -0.044 C 
ATOM     10 C10  LIG A   1      18.656  17.789   6.446  1.00 20.00    -0.044 C 
ATOM     11 N11  LIG A   1      20.243  19.223   7.627  1.00 20.00    -0.144 NA
ATOM     12 O12  LIG A   1      21.048  19.701   6.539  1.00 20.00    -0.120 OA
ATOM     13 N13  LIG A   1      21.613  26.089  16.076  1.00 20.00    -0.289 NA
ATOM     14 C14  LIG A   1      22.563  26.825  15.599  1.00 20.00    +0.092 C 
ATOM     15 N15  LIG A   1      22.752  28.061  16.130  1.00 20.00    -0.388 NA
ATOM     16 C16  LIG A   1      23.442  26.345  14.462  1.00 20.00    +0.022 C 
ATOM     17 C17  LIG A   1      24.124  25.021  14.795  1.00 20.00    +0.022 C 
ATOM     18 N18  LIG A   1      23.170  23.908  14.795  1.00 20.00    -0.384 NA
ATOM     19 C19  LIG A   1      22.914  23.154  13.649  1.00 20.00    +0.038 A 
ATOM     20 C20  LIG A   1      23.213  23.581  12.349  1.00 20.00    -0.038 A 
ATOM     21 C21  LIG A   1      22.862  22.810  11.233  1.00 20.00    -0.045 A 
ATOM     22 C22  LIG A   1      22.178  21.608  11.406  1.00 20.00    +0.065 A 
ATOM     23 C23  LIG A   1      21.794  20.782  10.247  1.00 20.00    +0.200 C 
ATOM     24 O24  LIG A   1      22.083  21.131   9.109  1.00 20.00    -0.288 OA
ATOM     25 C25  LIG A   1      21.055  19.521  10.545  1.00 20.00    +0.065 C 
ATOM     26 C26  LIG A   1      20.589  18.607   9.485  1.00 20.00    -0.011 A 
ATOM     27 C27  LIG A   1      20.833  17.231   9.555  1.00 20.00    -0.052 A 
ATOM     28 C28  LIG A   1      20.371  16.373   8.549  1.00 20.00    -0.038 A 
ATOM     29 C29  LIG A   1      19.680  16.860   7.430  1.00 20.00    +0.034 A 
ATOM     30 N30  LIG A   1      19.188  15.936   6.501  1.00 20.00    -0.385 NA
ATOM     31 C31  LIG A   1      18.739  16.396   5.191  1.00 20.00    +0.016 C 
ATOM     32 C32  LIG A   1      18.313  15.208   4.324  1.00 20.00    -0.023 C 
ATOM     33 C33  LIG A   1      17.035  14.544   4.850  1.00 20.00    -0.003 C 
ATOM     34 N34  LIG A   1      16.527  13.482   3.975  1.00 20.00    -0.317 NA
ATOM     35 C35  LIG A   1      17.347  12.272   4.024  1.00 20.00    -0.005 C 
ATOM     36 C36  LIG A   1      16.678  11.117   3.273  1.00 20.00    -0.039 C 
ATOM     37 C37  LIG A   1      16.266  11.365   1.814  1.00 20.00    -0.040 C 
ATOM     38 C38  LIG A   1      17.373  11.889   0.899  1.00 20.00    -0.008 C 
ATOM     39 N39  LIG A   1      17.530  13.339   1.004  1.00 20.00    -0.330 NA
ATOM     40 C40  LIG A   1      19.413  18.231   7.384  1.00 20.00    -0.038 A 
ATOM     41 C41  LIG A   1      19.874  19.096   8.387  1.00 20.00    -0.052 A 
ATOM     42 C42  LIG A   1      20.793  19.260  11.836  1.00 20.00    +0.103 C 
ATOM     43 O43  LIG A   1      21.150  20.023  12.922  1.00 20.00    -0.463 OA
ATOM     44 C44  LIG A   1      21.838  21.185  12.683  1.00 20.00    +0.139 A 
ATOM     45 C45  LIG A   1      22.194  21.957  13.793  1.00 20.00    +0.005 A 
ATOM     46 H46  LIG A   1      21.302  21.454  10.038  1.00 20.00    +0.025 H 
ATOM     47 H47  LIG A   1      20.125  21.697   8.743  1.00 20.00    +0.025 H 
ATOM     48 H48  LIG A   1      21.847  21.496   8.364  1.00 20.00    +0.025 H 
ATOM     49 H49  LIG A   1      22.932  19.143   8.496  1.00 20.00    +0.025 H 
ATOM     50 H50  LIG A   1      22.580  19.342  10.209  1.00 20.00    +0.025 H 
ATOM     51 H51  LIG A   1      22.099  17.866   9.394  1.00 20.00    +0.025 H 
ATOM     52 H52  LIG A   1      20.315  18.978  10.971  1.00 20.00    +0.031 H 
ATOM     53 H53  LIG A   1      19.204  20.153  10.331  1.00 20.00    +0.031 H 
ATOM     54 H54  LIG A   1      17.916  18.637   9.176  1.00 20.00    +0.060 H 
ATOM     55 H55  LIG A   1      17.916  18.254  11.396  1.00 20.00    +0.210 HD
ATOM     56 H56  LIG A   1      20.250  16.675   9.276  1.00 20.00    +0.031 H 
ATOM     57 H57  LIG A   1      18.700  16.334   8.570  1.00 20.00    +0.031 H 
ATOM     58 H58  LIG A   1      20.594  15.833   6.767  1.00 20.00    +0.025 H 
ATOM     59 H59  LIG A   1      21.208  17.149   5.776  1.00 20.00    +0.025 H 
ATOM     60 H60  LIG A   1      21.875  16.870   7.391  1.00 20.00    +0.025 H 
ATOM     61 H61  LIG A   1      18.272  16.772   6.304  1.00 20.00    +0.025 H 
ATOM     62 H62  LIG A   1      18.922  18.172   5.453  1.00 20.00    +0.025 H 
ATOM     63 H63  LIG A   1      17.829  18.400   6.826  1.00 20.00    +0.025 H 
ATOM     64 H64  LIG A   1      21.604  25.192  15.558  1.00 20.00    +0.189 HD
ATOM     65 H65  LIG A   1      22.250  28.185  17.004  1.00 20.00    +0.157 HD
ATOM     66 H66  LIG A   1      23.685  28.450  16.127  1.00 20.00    +0.157 HD
ATOM     67 H67  LIG A   1      22.818  26.268  13.565  1.00 20.00    +0.037 H 
ATOM     68 H68  LIG A   1      24.208  27.105  14.268  1.00 20.00    +0.037 H 
ATOM     69 H69  LIG A   1      24.564  25.086  15.798  1.00 20.00    +0.049 H 
ATOM     70 H70  LIG A   1      24.956  24.827  14.110  1.00 20.00    +0.049 H 
ATOM     71 H71  LIG A   1      23.253  23.325  15.628  1.00 20.00    +0.160 HD
ATOM     72 H72  LIG A   1      23.724  24.520  12.169  1.00 20.00    +0.064 H 
ATOM     73 H73  LIG A   1      23.117  23.160  10.233  1.00 20.00    +0.063 H 
ATOM     74 H74  LIG A   1      21.384  16.805  10.389  1.00 20.00    +0.063 H 
ATOM     75 H75  LIG A   1      20.558  15.307   8.649  1.00 20.00    +0.064 H 
ATOM     76 H76  LIG A   1      19.786  15.114   6.450  1.00 20.00    +0.160 HD
ATOM     77 H77  LIG A   1      17.895  17.089   5.288  1.00 20.00    +0.049 H 
ATOM     78 H78  LIG A   1      19.559  16.920   4.685  1.00 20.00    +0.049 H 
ATOM     79 H79  LIG A   1      19.131  14.482   4.272  1.00 20.00    +0.030 H 
ATOM     80 H80  LIG A   1      18.137  15.572   3.304  1.00 20.00    +0.030 H 
ATOM     81 H81  LIG A   1      16.248  15.304   4.922  1.00 20.00    +0.043 H 
ATOM     82 H82  LIG A   1      17.179  14.158   5.866  1.00 20.00    +0.043 H 
ATOM     83 H83  LIG A   1      16.552  13.812   3.004  1.00 20.00    +0.122 HD
ATOM     84 H84  LIG A   1      18.341  12.453   3.602  1.00 20.00    +0.043 H 
ATOM     85 H85  LIG A   1      17.490  11.957   5.064  1.00 20.00    +0.043 H 
ATOM     86 H86  LIG A   1      17.362  10.259   3.298  1.00 20.00    +0.028 H 
ATOM     87 H87  LIG A   1      15.784  10.804   3.827  1.00 20.00    +0.028 H 
ATOM     88 H88  LIG A   1      15.395  12.032   1.779  1.00 20.00    +0.028 H 
ATOM     89 H89  LIG A   1      15.918  10.406   1.408  1.00 20.00    +0.028 H 
ATOM     90 H90  LIG A   1      18.324  11.396   1.128  1.00 20.00    +0.043 H 
ATOM     91 H91  LIG A   1      17.124  11.649  -0.140  1.00 20.00    +0.043 H 
ATOM     92 H92  LIG A   1      16.686  13.785   0.642  1.00 20.00    +0.118 HD
ATOM     93 H93  LIG A   1      18.282  13.633   0.379  1.00 20.00    +0.118 HD
ATOM     94 H94  LIG A   1      18.844  18.665   6.568  1.00 20.00    +0.064 H 
ATOM     95 H95  LIG A   1      19.658  20.159   8.298  1.00 20.00    +0.063 H 
ATOM     96 H96  LIG A   1      20.241  18.391  12.177  1.00 20.00    +0.105 H 
ATOM     97 H97  LIG A   1      21.896  21.617  14.782  1.00 20.00    +0.068 H 
ENDROOT
TORSDOF 0
                                                                                                    
ENDMDL
MODEL 5
REMARK VINA RESULT:   -10.374      1.705      2.161
REMARK INTER + INTRA:         -10.374
REMARK INTER:                 -10.374
REMARK INTRA:                   0.000
REMARK UNBOUND:                 0.000
ROOT
ATOM      1 C1   LIG A   1      19.271  20.870   8.950  1.00 20.00    -0.044 C 
ATOM      2 C2   LIG A   1      20.000  19.495   8.959  1.00 20.00    +0.047 C 
ATOM      3 C3   LIG A   1      21.517  19.788   9.074  1.00 20.00    -0.044 C 
ATOM      4 C4   LIG A   1      19.518  18.770  10.254  1.00 20.00    -0.006 C 
ATOM      5 C5   LIG A   1      19.313  17.264  10.092  1.00 20.00    +0.058 C 
ATOM      6 O6   LIG A   1      19.443  16.622  11.369  1.00 20.00    -0.393 OA
ATOM      7 C7   LIG A   1      20.313  16.673   9.117  1.00 20.00    -0.006 C 
ATOM      8 C8   LIG A   1      20.132  17.280   7.700  1.00 20.00    +0.047 C 
ATOM      9 C9   LIG A   1      21.471  17.078   6.942  1.00 20.00    -0.044 C 
ATOM     10 C10  LIG A   1      19.053  16.444   6.961  1.00 20.00    -0.044 C 
ATOM     11 N11  LIG A   1      19.613  18.672   7.792  1.00 20.00    -0.144 NA
ATOM     12 O12  LIG A   1      19.839  19.377   6.563  1.00 20.00    -0.120 OA
ATOM     13 N13  LIG A   1      17.662  26.117  15.614  1.00 20.00    -0.289 NA
ATOM     14 C14  LIG A   1      17.926  27.195  14.951  1.00 20.00    +0.092 C 
ATOM     15 N15  LIG A   1      17.409  28.370  15.395  1.00 20.00    -0.388 NA
ATOM     16 C16  LIG A   1      18.772  27.165  13.695  1.00 20.00    +0.022 C 
ATOM     17 C17  LIG A   1      20.140  26.537  13.951  1.00 20.00    +0.022 C 
ATOM     18 N18  LIG A   1      20.039  25.090  14.158  1.00 20.00    -0.384 NA
ATOM     19 C19  LIG A   1      20.142  24.182  13.103  1.00 20.00    +0.038 A 
ATOM     20 C20  LIG A   1      19.971  24.526  11.756  1.00 20.00    -0.038 A 
ATOM     21 C21  LIG A   1      20.012  23.554  10.748  1.00 20.00    -0.045 A 
ATOM     22 C22  LIG A   1      20.199  22.214  11.082  1.00 20.00    +0.065 A 
ATOM     23 C23  LIG A   1      20.242  21.172  10.040  1.00 20.00    +0.200 C 
ATOM     24 O24  LIG A   1      20.129  21.470   8.857  1.00 20.00    -0.288 OA
ATOM     25 C25  LIG A   1      20.436  19.770  10.509  1.00 20.00    +0.065 C 
ATOM     26 C26  LIG A   1      20.477  18.624   9.581  1.00 20.00    -0.011 A 
ATOM     27 C27  LIG A   1      21.494  17.666   9.657  1.00 20.00    -0.052 A 
ATOM     28 C28  LIG A   1      21.512  16.575   8.779  1.00 20.00    -0.038 A 
ATOM     29 C29  LIG A   1      20.539  16.419   7.783  1.00 20.00    +0.034 A 
ATOM     30 N30  LIG A   1      20.581  15.267   6.989  1.00 20.00    -0.385 NA
ATOM     31 C31  LIG A   1      19.793  15.203   5.762  1.00 20.00    +0.016 C 
ATOM     32 C32  LIG A   1      20.051  13.885   5.028  1.00 20.00    -0.023 C 
ATOM     33 C33  LIG A   1      19.490  12.682   5.794  1.00 20.00    -0.003 C 
ATOM     34 N34  LIG A   1      19.608  11.417   5.061  1.00 20.00    -0.317 NA
ATOM     35 C35  LIG A   1      20.983  10.923   5.008  1.00 20.00    -0.005 C 
ATOM     36 C36  LIG A   1      21.043   9.506   4.429  1.00 20.00    -0.039 C 
ATOM     37 C37  LIG A   1      20.391   9.274   3.058  1.00 20.00    -0.040 C 
ATOM     38 C38  LIG A   1      20.853  10.214   1.944  1.00 20.00    -0.008 C 
ATOM     39 N39  LIG A   1      20.132  11.486   1.967  1.00 20.00    -0.330 NA
ATOM     40 C40  LIG A   1      19.509  17.362   7.735  1.00 20.00    -0.038 A 
ATOM     41 C41  LIG A   1      19.485  18.458   8.609  1.00 20.00    -0.052 A 
ATOM     42 C42  LIG A   1      20.538  19.580  11.834  1.00 20.00    +0.103 C 
ATOM     43 O43  LIG A   1      20.502  20.546  12.812  1.00 20.00    -0.463 OA
ATOM     44 C44  LIG A   1      20.334  21.847  12.414  1.00 20.00    +0.139 A 
ATOM     45 C45  LIG A   1      20.294  22.821  13.415  1.00 20.00    +0.005 A 
ATOM     46 H46  LIG A   1      19.428  21.402   9.896  1.00 20.00    +0.025 H 
ATOM     47 H47  LIG A   1      18.189  20.745   8.821  1.00 20.00    +0.025 H 
ATOM     48 H48  LIG A   1      19.634  21.528   8.152  1.00 20.00    +0.025 H 
ATOM     49 H49  LIG A   1      21.908  20.278   8.176  1.00 20.00    +0.025 H 
ATOM     50 H50  LIG A   1      21.717  20.463   9.915  1.00 20.00    +0.025 H 
ATOM     51 H51  LIG A   1      22.108  18.887   9.252  1.00 20.00    +0.025 H 
ATOM     52 H52  LIG A   1      20.219  18.962  11.078  1.00 20.00    +0.031 H 
ATOM     53 H53  LIG A   1      18.560  19.181  10.601  1.00 20.00    +0.031 H 
ATOM     54 H54  LIG A   1      18.292  17.062   9.746  1.00 20.00    +0.060 H 
ATOM     55 H55  LIG A   1      18.787  17.048  11.944  1.00 20.00    +0.210 HD
ATOM     56 H56  LIG A   1      21.325  16.844   9.504  1.00 20.00    +0.031 H 
ATOM     57 H57  LIG A   1      20.207  15.580   9.096  1.00 20.00    +0.031 H 
ATOM     58 H58  LIG A   1      21.794  16.031   7.006  1.00 20.00    +0.025 H 
ATOM     59 H59  LIG A   1      21.385  17.314   5.876  1.00 20.00    +0.025 H 
ATOM     60 H60  LIG A   1      22.277  17.690   7.357  1.00 20.00    +0.025 H 
ATOM     61 H61  LIG A   1      19.332  15.384   6.926  1.00 20.00    +0.025 H 
ATOM     62 H62  LIG A   1      18.919  16.774   5.924  1.00 20.00    +0.025 H 
ATOM     63 H63  LIG A   1      18.079  16.509   7.459  1.00 20.00    +0.025 H 
ATOM     64 H64  LIG A   1      18.123  25.320  15.138  1.00 20.00    +0.189 HD
ATOM     65 H65  LIG A   1      17.041  28.296  16.339  1.00 20.00    +0.157 HD
ATOM     66 H66  LIG A   1      17.922  29.222  15.214  1.00 20.00    +0.157 HD
ATOM     67 H67  LIG A   1      18.212  26.623  12.925  1.00 20.00    +0.037 H 
ATOM     68 H68  LIG A   1      18.910  28.194  13.342  1.00 20.00    +0.037 H 
ATOM     69 H69  LIG A   1      20.573  26.977  14.858  1.00 20.00    +0.049 H 
ATOM     70 H70  LIG A   1      20.835  26.771  13.136  1.00 20.00    +0.049 H 
ATOM     71 H71  LIG A   1      20.550  24.779  14.985  1.00 20.00    +0.160 HD
ATOM     72 H72  LIG A   1      19.801  25.554  11.455  1.00 20.00    +0.064 H 
ATOM     73 H73  LIG A   1      19.888  23.850   9.708  1.00 20.00    +0.063 H 
ATOM     74 H74  LIG A   1      22.287  17.752  10.395  1.00 20.00    +0.063 H 
ATOM     75 H75  LIG A   1      22.305  15.837   8.883  1.00 20.00    +0.064 H 
ATOM     76 H76  LIG A   1      21.538  14.944   6.863  1.00 20.00    +0.160 HD
ATOM     77 H77  LIG A   1      18.722  15.286   5.981  1.00 20.00    +0.049 H 
ATOM     78 H78  LIG A   1      20.075  16.032   5.101  1.00 20.00    +0.049 H 
ATOM     79 H79  LIG A   1      21.127  13.766   4.859  1.00 20.00    +0.030 H 
ATOM     80 H80  LIG A   1      19.573  13.941   4.042  1.00 20.00    +0.030 H 
ATOM     81 H81  LIG A   1      18.421  12.849   5.976  1.00 20.00    +0.043 H 
ATOM     82 H82  LIG A   1      19.956  12.590   6.782  1.00 20.00    +0.043 H 
ATOM     83 H83  LIG A   1      19.314  11.567   4.089  1.00 20.00    +0.122 HD
ATOM     84 H84  LIG A   1      21.618  11.587   4.411  1.00 20.00    +0.043 H 
ATOM     85 H85  LIG A   1      21.409  10.890   6.018  1.00 20.00    +0.043 H 
ATOM     86 H86  LIG A   1      22.098   9.214   4.364  1.00 20.00    +0.028 H 
ATOM     87 H87  LIG A   1      20.582   8.811   5.143  1.00 20.00    +0.028 H 
ATOM     88 H88  LIG A   1      19.299   9.303   3.153  1.00 20.00    +0.028 H 
ATOM     89 H89  LIG A   1      20.633   8.247   2.755  1.00 20.00    +0.028 H 
ATOM     90 H90  LIG A   1      21.930  10.397   2.020  1.00 20.00    +0.043 H 
ATOM     91 H91  LIG A   1      20.671   9.738   0.974  1.00 20.00    +0.043 H 
ATOM     92 H92  LIG A   1      19.152  11.310   1.744  1.00 20.00    +0.118 HD
ATOM     93 H93  LIG A   1      20.481  12.074   1.209  1.00 20.00    +0.118 HD
ATOM     94 H94  LIG A   1      18.700  17.275   7.017  1.00 20.00    +0.064 H 
ATOM     95 H95  LIG A   1      18.674  19.178   8.521  1.00 20.00    +0.063 H 
ATOM     96 H96  LIG A   1      20.653  18.607  12.299  1.00 20.00    +0.105 H 
ATOM     97 H97  LIG A   1      20.378  22.507  14.453  1.00 20.00    +0.068 H 
ENDROOT
TORSDOF 0
                                                                                                    
ENDMDL
MODEL 6
REMARK VINA RESULT:   -10.357      3.700     12.426
REMARK INTER + INTRA:         -10.357
REMARK INTER:                 -10.357
REMARK INTRA:                   0.000
REMARK UNBOUND:                 0.000
ROOT
ATOM      1 C1   LIG A   1      23.249  19.777   8.560  1.00 20.00    -0.044 C 
ATOM      2 C2   LIG A   1      22.235  20.928   8.830  1.00 20.00    +0.047 C 
ATOM      3 C3   LIG A   1      22.365  21.929   7.656  1.00 20.00    -0.044 C 
ATOM      4 C4   LIG A   1      20.823  20.266   8.787  1.00 20.00    -0.006 C 
ATOM      5 C5   LIG A   1      19.836  20.824   9.811  1.00 20.00    +0.058 C 
ATOM      6 O6   LIG A   1      18.494  20.611   9.349  1.00 20.00    -0.393 OA
ATOM      7 C7   LIG A   1      20.066  22.303  10.050  1.00 20.00    -0.006 C 
ATOM      8 C8   LIG A   1      21.479  22.556  10.642  1.00 20.00    +0.047 C 
ATOM      9 C9   LIG A   1      21.844  24.033  10.339  1.00 20.00    -0.044 C 
ATOM     10 C10  LIG A   1      21.378  22.414  12.185  1.00 20.00    -0.044 C 
ATOM     11 N11  LIG A   1      22.435  21.515  10.173  1.00 20.00    -0.144 NA
ATOM     12 O12  LIG A   1      23.788  21.956  10.351  1.00 20.00    -0.120 OA
ATOM     13 N13  LIG A   1      22.530  13.215   2.996  1.00 20.00    -0.289 NA
ATOM     14 C14  LIG A   1      23.769  13.266   2.631  1.00 20.00    +0.092 C 
ATOM     15 N15  LIG A   1      24.325  12.157   2.076  1.00 20.00    -0.388 NA
ATOM     16 C16  LIG A   1      24.603  14.515   2.826  1.00 20.00    +0.022 C 
ATOM     17 C17  LIG A   1      23.964  15.730   2.157  1.00 20.00    +0.022 C 
ATOM     18 N18  LIG A   1      22.766  16.173   2.875  1.00 20.00    -0.384 NA
ATOM     19 C19  LIG A   1      22.824  17.128   3.892  1.00 20.00    +0.038 A 
ATOM     20 C20  LIG A   1      23.996  17.468   4.580  1.00 20.00    -0.038 A 
ATOM     21 C21  LIG A   1      23.976  18.379   5.644  1.00 20.00    -0.045 A 
ATOM     22 C22  LIG A   1      22.769  18.943   6.052  1.00 20.00    +0.065 A 
ATOM     23 C23  LIG A   1      22.720  19.902   7.171  1.00 20.00    +0.200 C 
ATOM     24 O24  LIG A   1      23.747  20.231   7.754  1.00 20.00    -0.288 OA
ATOM     25 C25  LIG A   1      21.375  20.435   7.533  1.00 20.00    +0.065 C 
ATOM     26 C26  LIG A   1      21.173  21.384   8.643  1.00 20.00    -0.011 A 
ATOM     27 C27  LIG A   1      20.418  22.550   8.473  1.00 20.00    -0.052 A 
ATOM     28 C28  LIG A   1      20.221  23.434   9.541  1.00 20.00    -0.038 A 
ATOM     29 C29  LIG A   1      20.792  23.202  10.800  1.00 20.00    +0.034 A 
ATOM     30 N30  LIG A   1      20.494  24.093  11.838  1.00 20.00    -0.385 NA
ATOM     31 C31  LIG A   1      21.289  24.071  13.061  1.00 20.00    +0.016 C 
ATOM     32 C32  LIG A   1      20.828  25.174  14.018  1.00 20.00    -0.023 C 
ATOM     33 C33  LIG A   1      19.428  24.897  14.580  1.00 20.00    -0.003 C 
ATOM     34 N34  LIG A   1      19.005  25.867  15.595  1.00 20.00    -0.317 NA
ATOM     35 C35  LIG A   1      18.675  27.173  15.025  1.00 20.00    -0.005 C 
ATOM     36 C36  LIG A   1      18.036  28.091  16.072  1.00 20.00    -0.039 C 
ATOM     37 C37  LIG A   1      18.807  28.315  17.382  1.00 20.00    -0.040 C 
ATOM     38 C38  LIG A   1      20.253  28.785  17.221  1.00 20.00    -0.008 C 
ATOM     39 N39  LIG A   1      21.169  27.671  16.981  1.00 20.00    -0.330 NA
ATOM     40 C40  LIG A   1      21.518  22.020  10.970  1.00 20.00    -0.038 A 
ATOM     41 C41  LIG A   1      21.720  21.131   9.905  1.00 20.00    -0.052 A 
ATOM     42 C42  LIG A   1      20.331  19.985   6.820  1.00 20.00    +0.103 C 
ATOM     43 O43  LIG A   1      20.367  19.095   5.772  1.00 20.00    -0.463 OA
ATOM     44 C44  LIG A   1      21.590  18.592   5.409  1.00 20.00    +0.139 A 
ATOM     45 C45  LIG A   1      21.617  17.684   4.347  1.00 20.00    +0.005 A 
ATOM     46 H46  LIG A   1      22.989  19.236   7.641  1.00 20.00    +0.025 H 
ATOM     47 H47  LIG A   1      23.250  19.048   9.379  1.00 20.00    +0.025 H 
ATOM     48 H48  LIG A   1      24.273  20.147   8.432  1.00 20.00    +0.025 H 
ATOM     49 H49  LIG A   1      23.335  22.438   7.658  1.00 20.00    +0.025 H 
ATOM     50 H50  LIG A   1      22.282  21.409   6.694  1.00 20.00    +0.025 H 
ATOM     51 H51  LIG A   1      21.584  22.692   7.665  1.00 20.00    +0.025 H 
ATOM     52 H52  LIG A   1      20.398  20.350   7.777  1.00 20.00    +0.031 H 
ATOM     53 H53  LIG A   1      20.890  19.185   8.973  1.00 20.00    +0.031 H 
ATOM     54 H54  LIG A   1      19.929  20.275  10.756  1.00 20.00    +0.060 H 
ATOM     55 H55  LIG A   1      18.415  19.654   9.207  1.00 20.00    +0.210 HD
ATOM     56 H56  LIG A   1      19.923  22.839   9.104  1.00 20.00    +0.031 H 
ATOM     57 H57  LIG A   1      19.284  22.697  10.713  1.00 20.00    +0.031 H 
ATOM     58 H58  LIG A   1      21.035  24.702  10.658  1.00 20.00    +0.025 H 
ATOM     59 H59  LIG A   1      22.746  24.356  10.871  1.00 20.00    +0.025 H 
ATOM     60 H60  LIG A   1      22.004  24.208   9.271  1.00 20.00    +0.025 H 
ATOM     61 H61  LIG A   1      20.627  23.100  12.595  1.00 20.00    +0.025 H 
ATOM     62 H62  LIG A   1      22.328  22.646  12.680  1.00 20.00    +0.025 H 
ATOM     63 H63  LIG A   1      21.089  21.399  12.480  1.00 20.00    +0.025 H 
ATOM     64 H64  LIG A   1      22.272  14.133   3.401  1.00 20.00    +0.189 HD
ATOM     65 H65  LIG A   1      23.628  11.468   1.813  1.00 20.00    +0.157 HD
ATOM     66 H66  LIG A   1      25.069  12.276   1.402  1.00 20.00    +0.157 HD
ATOM     67 H67  LIG A   1      24.735  14.665   3.903  1.00 20.00    +0.037 H 
ATOM     68 H68  LIG A   1      25.595  14.346   2.391  1.00 20.00    +0.037 H 
ATOM     69 H69  LIG A   1      23.664  15.462   1.137  1.00 20.00    +0.049 H 
ATOM     70 H70  LIG A   1      24.689  16.546   2.057  1.00 20.00    +0.049 H 
ATOM     71 H71  LIG A   1      21.973  16.324   2.252  1.00 20.00    +0.160 HD
ATOM     72 H72  LIG A   1      24.953  17.035   4.309  1.00 20.00    +0.064 H 
ATOM     73 H73  LIG A   1      24.903  18.636   6.153  1.00 20.00    +0.063 H 
ATOM     74 H74  LIG A   1      19.973  22.790   7.511  1.00 20.00    +0.063 H 
ATOM     75 H75  LIG A   1      19.608  24.318   9.378  1.00 20.00    +0.064 H 
ATOM     76 H76  LIG A   1      20.340  25.033  11.480  1.00 20.00    +0.160 HD
ATOM     77 H77  LIG A   1      21.204  23.102  13.565  1.00 20.00    +0.049 H 
ATOM     78 H78  LIG A   1      22.344  24.241  12.816  1.00 20.00    +0.049 H 
ATOM     79 H79  LIG A   1      20.852  26.139  13.502  1.00 20.00    +0.030 H 
ATOM     80 H80  LIG A   1      21.544  25.231  14.847  1.00 20.00    +0.030 H 
ATOM     81 H81  LIG A   1      19.430  23.911  15.058  1.00 20.00    +0.043 H 
ATOM     82 H82  LIG A   1      18.683  24.845  13.776  1.00 20.00    +0.043 H 
ATOM     83 H83  LIG A   1      19.780  26.022  16.250  1.00 20.00    +0.122 HD
ATOM     84 H84  LIG A   1      19.565  27.658  14.610  1.00 20.00    +0.043 H 
ATOM     85 H85  LIG A   1      17.959  27.053  14.203  1.00 20.00    +0.043 H 
ATOM     86 H86  LIG A   1      17.863  29.067  15.602  1.00 20.00    +0.028 H 
ATOM     87 H87  LIG A   1      17.043  27.701  16.328  1.00 20.00    +0.028 H 
ATOM     88 H88  LIG A   1      18.767  27.408  17.999  1.00 20.00    +0.028 H 
ATOM     89 H89  LIG A   1      18.263  29.081  17.950  1.00 20.00    +0.028 H 
ATOM     90 H90  LIG A   1      20.330  29.510  16.404  1.00 20.00    +0.043 H 
ATOM     91 H91  LIG A   1      20.569  29.294  18.138  1.00 20.00    +0.043 H 
ATOM     92 H92  LIG A   1      21.196  27.086  17.818  1.00 20.00    +0.118 HD
ATOM     93 H93  LIG A   1      22.114  28.040  16.877  1.00 20.00    +0.118 HD
ATOM     94 H94  LIG A   1      21.948  21.758  11.932  1.00 20.00    +0.064 H 
ATOM     95 H95  LIG A   1      22.309  20.233  10.081  1.00 20.00    +0.063 H 
ATOM     96 H96  LIG A   1      19.302  20.277   7.003  1.00 20.00    +0.105 H 
ATOM     97 H97  LIG A   1      20.678  17.405   3.874  1.00 20.00    +0.068 H 
ENDROOT
TORSDOF 0
                                                                                                    
ENDMDL
MODEL 7
REMARK VINA RESULT:   -10.113      3.043      5.490
REMARK INTER + INTRA:         -10.113
REMARK INTER:                 -10.113
REMARK INTRA:                   0.000
REMARK UNBOUND:                 0.000
ROOT
ATOM      1 C1   LIG A   1      22.617  22.449  12.369  1.00 20.00    -0.044 C 
ATOM      2 C2   LIG A   1      21.612  21.497  11.657  1.00 20.00    +0.047 C 
ATOM      3 C3   LIG A   1      20.697  20.901  12.755  1.00 20.00    -0.044 C 
ATOM      4 C4   LIG A   1      20.760  22.408  10.718  1.00 20.00    -0.006 C 
ATOM      5 C5   LIG A   1      20.407  21.770   9.375  1.00 20.00    +0.058 C 
ATOM      6 O6   LIG A   1      19.216  22.378   8.854  1.00 20.00    -0.393 OA
ATOM      7 C7   LIG A   1      20.201  20.274   9.512  1.00 20.00    -0.006 C 
ATOM      8 C8   LIG A   1      21.505  19.575   9.983  1.00 20.00    +0.047 C 
ATOM      9 C9   LIG A   1      21.093  18.221  10.621  1.00 20.00    -0.044 C 
ATOM     10 C10  LIG A   1      22.350  19.252   8.722  1.00 20.00    -0.044 C 
ATOM     11 N11  LIG A   1      22.316  20.498  10.824  1.00 20.00    -0.144 NA
ATOM     12 O12  LIG A   1      23.276  19.762  11.597  1.00 20.00    -0.120 OA
ATOM     13 N13  LIG A   1      21.213  30.411  15.399  1.00 20.00    -0.289 NA
ATOM     14 C14  LIG A   1      21.916  30.229  16.469  1.00 20.00    +0.092 C 
ATOM     15 N15  LIG A   1      22.404  31.320  17.114  1.00 20.00    -0.388 NA
ATOM     16 C16  LIG A   1      22.216  28.840  16.994  1.00 20.00    +0.022 C 
ATOM     17 C17  LIG A   1      20.938  28.043  17.245  1.00 20.00    +0.022 C 
ATOM     18 N18  LIG A   1      20.294  27.648  15.989  1.00 20.00    -0.384 NA
ATOM     19 C19  LIG A   1      20.581  26.436  15.360  1.00 20.00    +0.038 A 
ATOM     20 C20  LIG A   1      21.728  25.674  15.616  1.00 20.00    -0.038 A 
ATOM     21 C21  LIG A   1      21.997  24.502  14.897  1.00 20.00    -0.045 A 
ATOM     22 C22  LIG A   1      21.129  24.093  13.886  1.00 20.00    +0.065 A 
ATOM     23 C23  LIG A   1      21.392  22.866  13.113  1.00 20.00    +0.200 C 
ATOM     24 O24  LIG A   1      22.376  22.176  13.355  1.00 20.00    -0.288 OA
ATOM     25 C25  LIG A   1      20.406  22.526  12.047  1.00 20.00    +0.065 C 
ATOM     26 C26  LIG A   1      20.552  21.342  11.181  1.00 20.00    -0.011 A 
ATOM     27 C27  LIG A   1      19.486  20.460  10.971  1.00 20.00    -0.052 A 
ATOM     28 C28  LIG A   1      19.636  19.348  10.133  1.00 20.00    -0.038 A 
ATOM     29 C29  LIG A   1      20.855  19.062   9.504  1.00 20.00    +0.034 A 
ATOM     30 N30  LIG A   1      20.909  17.973   8.626  1.00 20.00    -0.385 NA
ATOM     31 C31  LIG A   1      22.203  17.458   8.190  1.00 20.00    +0.016 C 
ATOM     32 C32  LIG A   1      22.017  16.230   7.296  1.00 20.00    -0.023 C 
ATOM     33 C33  LIG A   1      21.383  16.592   5.948  1.00 20.00    -0.003 C 
ATOM     34 N34  LIG A   1      21.304  15.462   5.017  1.00 20.00    -0.317 NA
ATOM     35 C35  LIG A   1      20.281  14.489   5.398  1.00 20.00    -0.005 C 
ATOM     36 C36  LIG A   1      20.076  13.439   4.302  1.00 20.00    -0.039 C 
ATOM     37 C37  LIG A   1      21.315  12.674   3.814  1.00 20.00    -0.040 C 
ATOM     38 C38  LIG A   1      22.142  11.998   4.907  1.00 20.00    -0.008 C 
ATOM     39 N39  LIG A   1      23.079  12.926   5.539  1.00 20.00    -0.330 NA
ATOM     40 C40  LIG A   1      21.905  19.965   9.694  1.00 20.00    -0.038 A 
ATOM     41 C41  LIG A   1      21.763  21.080  10.532  1.00 20.00    -0.052 A 
ATOM     42 C42  LIG A   1      19.377  23.373  11.879  1.00 20.00    +0.103 C 
ATOM     43 O43  LIG A   1      19.122  24.516  12.598  1.00 20.00    -0.463 OA
ATOM     44 C44  LIG A   1      20.006  24.852  13.591  1.00 20.00    +0.139 A 
ATOM     45 C45  LIG A   1      19.741  26.019  14.314  1.00 20.00    +0.005 A 
ATOM     46 H46  LIG A   1      22.091  23.287  12.844  1.00 20.00    +0.025 H 
ATOM     47 H47  LIG A   1      23.334  22.875  11.658  1.00 20.00    +0.025 H 
ATOM     48 H48  LIG A   1      23.182  21.940  13.159  1.00 20.00    +0.025 H 
ATOM     49 H49  LIG A   1      21.246  20.234  13.428  1.00 20.00    +0.025 H 
ATOM     50 H50  LIG A   1      20.271  21.698  13.377  1.00 20.00    +0.025 H 
ATOM     51 H51  LIG A   1      19.852  20.344  12.344  1.00 20.00    +0.025 H 
ATOM     52 H52  LIG A   1      19.842  22.725  11.231  1.00 20.00    +0.031 H 
ATOM     53 H53  LIG A   1      21.291  23.342  10.491  1.00 20.00    +0.031 H 
ATOM     54 H54  LIG A   1      21.202  21.971   8.647  1.00 20.00    +0.060 H 
ATOM     55 H55  LIG A   1      19.409  23.327   8.800  1.00 20.00    +0.210 HD
ATOM     56 H56  LIG A   1      19.372  20.095  10.209  1.00 20.00    +0.031 H 
ATOM     57 H57  LIG A   1      19.853  19.859   8.557  1.00 20.00    +0.031 H 
ATOM     58 H58  LIG A   1      20.435  17.662   9.943  1.00 20.00    +0.025 H 
ATOM     59 H59  LIG A   1      21.956  17.577  10.823  1.00 20.00    +0.025 H 
ATOM     60 H60  LIG A   1      20.548  18.356  11.560  1.00 20.00    +0.025 H 
ATOM     61 H61  LIG A   1      21.782  18.637   8.014  1.00 20.00    +0.025 H 
ATOM     62 H62  LIG A   1      23.261  18.694   8.972  1.00 20.00    +0.025 H 
ATOM     63 H63  LIG A   1      22.654  20.163   8.194  1.00 20.00    +0.025 H 
ATOM     64 H64  LIG A   1      20.930  29.483  15.034  1.00 20.00    +0.189 HD
ATOM     65 H65  LIG A   1      21.973  32.181  16.794  1.00 20.00    +0.157 HD
ATOM     66 H66  LIG A   1      22.538  31.269  18.115  1.00 20.00    +0.157 HD
ATOM     67 H67  LIG A   1      22.871  28.342  16.272  1.00 20.00    +0.037 H 
ATOM     68 H68  LIG A   1      22.771  28.935  17.935  1.00 20.00    +0.037 H 
ATOM     69 H69  LIG A   1      20.229  28.667  17.804  1.00 20.00    +0.049 H 
ATOM     70 H70  LIG A   1      21.140  27.171  17.876  1.00 20.00    +0.049 H 
ATOM     71 H71  LIG A   1      19.296  27.859  15.981  1.00 20.00    +0.160 HD
ATOM     72 H72  LIG A   1      22.441  25.970  16.379  1.00 20.00    +0.064 H 
ATOM     73 H73  LIG A   1      22.890  23.923  15.124  1.00 20.00    +0.063 H 
ATOM     74 H74  LIG A   1      18.526  20.622  11.454  1.00 20.00    +0.063 H 
ATOM     75 H75  LIG A   1      18.778  18.698   9.974  1.00 20.00    +0.064 H 
ATOM     76 H76  LIG A   1      20.266  17.239   8.913  1.00 20.00    +0.160 HD
ATOM     77 H77  LIG A   1      22.762  18.222   7.637  1.00 20.00    +0.049 H 
ATOM     78 H78  LIG A   1      22.796  17.165   9.066  1.00 20.00    +0.049 H 
ATOM     79 H79  LIG A   1      21.408  15.485   7.820  1.00 20.00    +0.030 H 
ATOM     80 H80  LIG A   1      23.001  15.778   7.122  1.00 20.00    +0.030 H 
ATOM     81 H81  LIG A   1      21.998  17.362   5.467  1.00 20.00    +0.043 H 
ATOM     82 H82  LIG A   1      20.390  17.038   6.086  1.00 20.00    +0.043 H 
ATOM     83 H83  LIG A   1      22.200  14.962   5.026  1.00 20.00    +0.122 HD
ATOM     84 H84  LIG A   1      20.544  13.988   6.337  1.00 20.00    +0.043 H 
ATOM     85 H85  LIG A   1      19.322  14.996   5.561  1.00 20.00    +0.043 H 
ATOM     86 H86  LIG A   1      19.341  12.711   4.667  1.00 20.00    +0.028 H 
ATOM     87 H87  LIG A   1      19.613  13.921   3.431  1.00 20.00    +0.028 H 
ATOM     88 H88  LIG A   1      21.949  13.335   3.210  1.00 20.00    +0.028 H 
ATOM     89 H89  LIG A   1      20.964  11.895   3.125  1.00 20.00    +0.028 H 
ATOM     90 H90  LIG A   1      21.486  11.560   5.667  1.00 20.00    +0.043 H 
ATOM     91 H91  LIG A   1      22.721  11.179   4.466  1.00 20.00    +0.043 H 
ATOM     92 H92  LIG A   1      23.776  13.207   4.848  1.00 20.00    +0.118 HD
ATOM     93 H93  LIG A   1      23.599  12.426   6.261  1.00 20.00    +0.118 HD
ATOM     94 H94  LIG A   1      22.861  19.826   9.199  1.00 20.00    +0.064 H 
ATOM     95 H95  LIG A   1      22.615  21.744  10.665  1.00 20.00    +0.063 H 
ATOM     96 H96  LIG A   1      18.611  23.250  11.122  1.00 20.00    +0.105 H 
ATOM     97 H97  LIG A   1      18.868  26.611  14.048  1.00 20.00    +0.068 H 
ENDROOT
TORSDOF 0
                                                                                                    
ENDMDL
MODEL 8
REMARK VINA RESULT:   -10.015      5.203      6.593
REMARK INTER + INTRA:         -10.015
REMARK INTER:                 -10.015
REMARK INTRA:                   0.000
REMARK UNBOUND:                 0.000
ROOT
ATOM      1 C1   LIG A   1      19.579  21.194   8.022  1.00 20.00    -0.044 C 
ATOM      2 C2   LIG A   1      20.228  20.269   9.094  1.00 20.00    +0.047 C 
ATOM      3 C3   LIG A   1      21.762  20.371   8.910  1.00 20.00    -0.044 C 
ATOM      4 C4   LIG A   1      19.834  20.882  10.474  1.00 20.00    -0.006 C 
ATOM      5 C5   LIG A   1      19.529  19.848  11.557  1.00 20.00    +0.058 C 
ATOM      6 O6   LIG A   1      19.747  20.430  12.851  1.00 20.00    -0.393 OA
ATOM      7 C7   LIG A   1      20.395  18.612  11.399  1.00 20.00    -0.006 C 
ATOM      8 C8   LIG A   1      20.111  17.906  10.046  1.00 20.00    +0.047 C 
ATOM      9 C9   LIG A   1      21.356  17.041   9.712  1.00 20.00    -0.044 C 
ATOM     10 C10  LIG A   1      18.920  16.934  10.261  1.00 20.00    -0.044 C 
ATOM     11 N11  LIG A   1      19.682  18.896   9.020  1.00 20.00    -0.144 NA
ATOM     12 O12  LIG A   1      19.827  18.351   7.701  1.00 20.00    -0.120 OA
ATOM     13 N13  LIG A   1      18.927  29.802   8.073  1.00 20.00    -0.289 NA
ATOM     14 C14  LIG A   1      19.186  29.923   6.811  1.00 20.00    +0.092 C 
ATOM     15 N15  LIG A   1      18.782  31.053   6.174  1.00 20.00    -0.388 NA
ATOM     16 C16  LIG A   1      19.903  28.834   6.041  1.00 20.00    +0.022 C 
ATOM     17 C17  LIG A   1      21.251  28.492   6.669  1.00 20.00    +0.022 C 
ATOM     18 N18  LIG A   1      21.089  27.770   7.934  1.00 20.00    -0.384 NA
ATOM     19 C19  LIG A   1      21.038  26.376   7.989  1.00 20.00    +0.038 A 
ATOM     20 C20  LIG A   1      20.755  25.560   6.887  1.00 20.00    -0.038 A 
ATOM     21 C21  LIG A   1      20.643  24.170   7.022  1.00 20.00    -0.045 A 
ATOM     22 C22  LIG A   1      20.786  23.580   8.277  1.00 20.00    +0.065 A 
ATOM     23 C23  LIG A   1      20.669  22.121   8.446  1.00 20.00    +0.200 C 
ATOM     24 O24  LIG A   1      20.457  21.397   7.480  1.00 20.00    -0.288 OA
ATOM     25 C25  LIG A   1      20.827  21.596   9.833  1.00 20.00    +0.065 C 
ATOM     26 C26  LIG A   1      20.713  20.162  10.155  1.00 20.00    -0.011 A 
ATOM     27 C27  LIG A   1      21.677  19.515  10.935  1.00 20.00    -0.052 A 
ATOM     28 C28  LIG A   1      21.548  18.155  11.246  1.00 20.00    -0.038 A 
ATOM     29 C29  LIG A   1      20.475  17.392  10.766  1.00 20.00    +0.034 A 
ATOM     30 N30  LIG A   1      20.374  16.057  11.175  1.00 20.00    -0.385 NA
ATOM     31 C31  LIG A   1      19.468  15.152  10.477  1.00 20.00    +0.016 C 
ATOM     32 C32  LIG A   1      19.578  13.737  11.050  1.00 20.00    -0.023 C 
ATOM     33 C33  LIG A   1      19.027  13.651  12.478  1.00 20.00    -0.003 C 
ATOM     34 N34  LIG A   1      19.002  12.285  13.013  1.00 20.00    -0.317 NA
ATOM     35 C35  LIG A   1      20.335  11.786  13.345  1.00 20.00    -0.005 C 
ATOM     36 C36  LIG A   1      20.258  10.452  14.095  1.00 20.00    -0.039 C 
ATOM     37 C37  LIG A   1      19.464   9.315  13.436  1.00 20.00    -0.040 C 
ATOM     38 C38  LIG A   1      19.866   8.978  12.000  1.00 20.00    -0.008 C 
ATOM     39 N39  LIG A   1      19.225   9.863  11.028  1.00 20.00    -0.330 NA
ATOM     40 C40  LIG A   1      19.500  18.053  10.014  1.00 20.00    -0.038 A 
ATOM     41 C41  LIG A   1      19.623  19.414   9.698  1.00 20.00    -0.052 A 
ATOM     42 C42  LIG A   1      21.047  22.498  10.802  1.00 20.00    +0.103 C 
ATOM     43 O43  LIG A   1      21.162  23.861  10.653  1.00 20.00    -0.463 OA
ATOM     44 C44  LIG A   1      21.029  24.374   9.389  1.00 20.00    +0.139 A 
ATOM     45 C45  LIG A   1      21.143  25.760   9.247  1.00 20.00    +0.005 A 
ATOM     46 H46  LIG A   1      19.858  22.241   8.190  1.00 20.00    +0.025 H 
ATOM     47 H47  LIG A   1      18.485  21.137   8.057  1.00 20.00    +0.025 H 
ATOM     48 H48  LIG A   1      19.900  20.939   7.005  1.00 20.00    +0.025 H 
ATOM     49 H49  LIG A   1      22.091  19.931   7.962  1.00 20.00    +0.025 H 
ATOM     50 H50  LIG A   1      22.081  21.420   8.900  1.00 20.00    +0.025 H 
ATOM     51 H51  LIG A   1      22.317  19.887   9.717  1.00 20.00    +0.025 H 
ATOM     52 H52  LIG A   1      20.622  21.564  10.823  1.00 20.00    +0.031 H 
ATOM     53 H53  LIG A   1      18.940  21.513  10.382  1.00 20.00    +0.031 H 
ATOM     54 H54  LIG A   1      18.470  19.568  11.517  1.00 20.00    +0.060 H 
ATOM     55 H55  LIG A   1      19.176  21.214  12.884  1.00 20.00    +0.210 HD
ATOM     56 H56  LIG A   1      21.448  18.907  11.488  1.00 20.00    +0.031 H 
ATOM     57 H57  LIG A   1      20.225  17.932  12.244  1.00 20.00    +0.031 H 
ATOM     58 H58  LIG A   1      21.625  16.408  10.567  1.00 20.00    +0.025 H 
ATOM     59 H59  LIG A   1      21.180  16.368   8.866  1.00 20.00    +0.025 H 
ATOM     60 H60  LIG A   1      22.232  17.653   9.476  1.00 20.00    +0.025 H 
ATOM     61 H61  LIG A   1      19.134  16.220  11.065  1.00 20.00    +0.025 H 
ATOM     62 H62  LIG A   1      18.704  16.346   9.360  1.00 20.00    +0.025 H 
ATOM     63 H63  LIG A   1      18.004  17.470  10.535  1.00 20.00    +0.025 H 
ATOM     64 H64  LIG A   1      19.294  28.888   8.394  1.00 20.00    +0.189 HD
ATOM     65 H65  LIG A   1      18.504  31.782   6.824  1.00 20.00    +0.157 HD
ATOM     66 H66  LIG A   1      19.322  31.382   5.386  1.00 20.00    +0.157 HD
ATOM     67 H67  LIG A   1      19.241  27.962   5.997  1.00 20.00    +0.037 H 
ATOM     68 H68  LIG A   1      20.063  29.180   5.013  1.00 20.00    +0.037 H 
ATOM     69 H69  LIG A   1      21.795  29.421   6.880  1.00 20.00    +0.049 H 
ATOM     70 H70  LIG A   1      21.876  27.926   5.969  1.00 20.00    +0.049 H 
ATOM     71 H71  LIG A   1      21.661  28.163   8.682  1.00 20.00    +0.160 HD
ATOM     72 H72  LIG A   1      20.615  25.980   5.897  1.00 20.00    +0.064 H 
ATOM     73 H73  LIG A   1      20.434  23.557   6.146  1.00 20.00    +0.063 H 
ATOM     74 H74  LIG A   1      22.542  20.054  11.313  1.00 20.00    +0.063 H 
ATOM     75 H75  LIG A   1      22.304  17.692  11.876  1.00 20.00    +0.064 H 
ATOM     76 H76  LIG A   1      21.294  15.653  11.335  1.00 20.00    +0.160 HD
ATOM     77 H77  LIG A   1      18.430  15.493  10.565  1.00 20.00    +0.049 H 
ATOM     78 H78  LIG A   1      19.730  15.119   9.412  1.00 20.00    +0.049 H 
ATOM     79 H79  LIG A   1      20.624  13.411  11.020  1.00 20.00    +0.030 H 
ATOM     80 H80  LIG A   1      19.010  13.058  10.402  1.00 20.00    +0.030 H 
ATOM     81 H81  LIG A   1      17.993  14.015  12.477  1.00 20.00    +0.043 H 
ATOM     82 H82  LIG A   1      19.582  14.311  13.156  1.00 20.00    +0.043 H 
ATOM     83 H83  LIG A   1      18.624  11.656  12.296  1.00 20.00    +0.122 HD
ATOM     84 H84  LIG A   1      20.945  11.661  12.443  1.00 20.00    +0.043 H 
ATOM     85 H85  LIG A   1      20.855  12.504  13.990  1.00 20.00    +0.043 H 
ATOM     86 H86  LIG A   1      21.284  10.103  14.266  1.00 20.00    +0.028 H 
ATOM     87 H87  LIG A   1      19.831  10.629  15.090  1.00 20.00    +0.028 H 
ATOM     88 H88  LIG A   1      18.389   9.528  13.490  1.00 20.00    +0.028 H 
ATOM     89 H89  LIG A   1      19.616   8.417  14.049  1.00 20.00    +0.028 H 
ATOM     90 H90  LIG A   1      20.955   9.030  11.886  1.00 20.00    +0.043 H 
ATOM     91 H91  LIG A   1      19.565   7.950  11.774  1.00 20.00    +0.043 H 
ATOM     92 H92  LIG A   1      18.219   9.689  11.045  1.00 20.00    +0.118 HD
ATOM     93 H93  LIG A   1      19.531   9.598  10.092  1.00 20.00    +0.118 HD
ATOM     94 H94  LIG A   1      18.621  17.531   9.650  1.00 20.00    +0.064 H 
ATOM     95 H95  LIG A   1      18.849  19.880   9.092  1.00 20.00    +0.063 H 
ATOM     96 H96  LIG A   1      21.152  22.245  11.852  1.00 20.00    +0.105 H 
ATOM     97 H97  LIG A   1      21.309  26.364  10.136  1.00 20.00    +0.068 H 
ENDROOT
TORSDOF 0
                                                                                                    
ENDMDL
MODEL 9
REMARK VINA RESULT:    -9.989      1.719     11.976
REMARK INTER + INTRA:          -9.989
REMARK INTER:                  -9.989
REMARK INTRA:                   0.000
REMARK UNBOUND:                 0.000
ROOT
ATOM      1 C1   LIG A   1      17.941  15.826   7.446  1.00 20.00    -0.044 C 
ATOM      2 C2   LIG A   1      19.191  16.696   7.768  1.00 20.00    +0.047 C 
ATOM      3 C3   LIG A   1      20.369  15.722   8.014  1.00 20.00    -0.044 C 
ATOM      4 C4   LIG A   1      19.472  17.525   6.476  1.00 20.00    -0.006 C 
ATOM      5 C5   LIG A   1      19.945  18.955   6.738  1.00 20.00    +0.058 C 
ATOM      6 O6   LIG A   1      20.700  19.424   5.611  1.00 20.00    -0.393 OA
ATOM      7 C7   LIG A   1      20.793  19.035   7.992  1.00 20.00    -0.006 C 
ATOM      8 C8   LIG A   1      19.972  18.624   9.244  1.00 20.00    +0.047 C 
ATOM      9 C9   LIG A   1      20.988  18.196  10.336  1.00 20.00    -0.044 C 
ATOM     10 C10  LIG A   1      19.241  19.890   9.766  1.00 20.00    -0.044 C 
ATOM     11 N11  LIG A   1      18.920  17.637   8.876  1.00 20.00    -0.144 NA
ATOM     12 O12  LIG A   1      18.450  16.944  10.042  1.00 20.00    -0.120 OA
ATOM     13 N13  LIG A   1      16.007  11.762   0.078  1.00 20.00    -0.289 NA
ATOM     14 C14  LIG A   1      15.554  10.705   0.670  1.00 20.00    +0.092 C 
ATOM     15 N15  LIG A   1      14.700   9.898  -0.013  1.00 20.00    -0.388 NA
ATOM     16 C16  LIG A   1      15.937  10.369   2.097  1.00 20.00    +0.022 C 
ATOM     17 C17  LIG A   1      17.451  10.274   2.267  1.00 20.00    +0.022 C 
ATOM     18 N18  LIG A   1      18.086  11.592   2.193  1.00 20.00    -0.384 NA
ATOM     19 C19  LIG A   1      18.300  12.375   3.329  1.00 20.00    +0.038 A 
ATOM     20 C20  LIG A   1      17.628  12.191   4.543  1.00 20.00    -0.038 A 
ATOM     21 C21  LIG A   1      17.831  13.058   5.625  1.00 20.00    -0.045 A 
ATOM     22 C22  LIG A   1      18.695  14.143   5.492  1.00 20.00    +0.065 A 
ATOM     23 C23  LIG A   1      18.923  15.071   6.614  1.00 20.00    +0.200 C 
ATOM     24 O24  LIG A   1      18.365  14.896   7.691  1.00 20.00    -0.288 OA
ATOM     25 C25  LIG A   1      19.859  16.205   6.361  1.00 20.00    +0.065 C 
ATOM     26 C26  LIG A   1      20.164  17.223   7.383  1.00 20.00    -0.011 A 
ATOM     27 C27  LIG A   1      21.484  17.588   7.671  1.00 20.00    -0.052 A 
ATOM     28 C28  LIG A   1      21.759  18.568   8.634  1.00 20.00    -0.038 A 
ATOM     29 C29  LIG A   1      20.734  19.191   9.359  1.00 20.00    +0.034 A 
ATOM     30 N30  LIG A   1      21.080  20.210  10.254  1.00 20.00    -0.385 NA
ATOM     31 C31  LIG A   1      20.105  20.672  11.237  1.00 20.00    +0.016 C 
ATOM     32 C32  LIG A   1      20.726  21.734  12.148  1.00 20.00    -0.023 C 
ATOM     33 C33  LIG A   1      21.014  23.038  11.395  1.00 20.00    -0.003 C 
ATOM     34 N34  LIG A   1      21.493  24.120  12.262  1.00 20.00    -0.317 NA
ATOM     35 C35  LIG A   1      22.867  23.911  12.716  1.00 20.00    -0.005 C 
ATOM     36 C36  LIG A   1      23.408  25.150  13.437  1.00 20.00    -0.039 C 
ATOM     37 C37  LIG A   1      22.587  25.700  14.612  1.00 20.00    -0.040 C 
ATOM     38 C38  LIG A   1      22.239  24.685  15.702  1.00 20.00    -0.008 C 
ATOM     39 N39  LIG A   1      21.053  23.900  15.363  1.00 20.00    -0.330 NA
ATOM     40 C40  LIG A   1      19.418  18.844   9.043  1.00 20.00    -0.038 A 
ATOM     41 C41  LIG A   1      19.135  17.863   8.081  1.00 20.00    -0.052 A 
ATOM     42 C42  LIG A   1      20.396  16.287   5.133  1.00 20.00    +0.103 C 
ATOM     43 O43  LIG A   1      20.192  15.423   4.083  1.00 20.00    -0.463 OA
ATOM     44 C44  LIG A   1      19.344  14.365   4.286  1.00 20.00    +0.139 A 
ATOM     45 C45  LIG A   1      19.139  13.496   3.211  1.00 20.00    +0.005 A 
ATOM     46 H46  LIG A   1      18.090  15.256   6.520  1.00 20.00    +0.025 H 
ATOM     47 H47  LIG A   1      17.049  16.447   7.306  1.00 20.00    +0.025 H 
ATOM     48 H48  LIG A   1      17.727  15.097   8.236  1.00 20.00    +0.025 H 
ATOM     49 H49  LIG A   1      20.229  15.132   8.926  1.00 20.00    +0.025 H 
ATOM     50 H50  LIG A   1      20.460  15.009   7.186  1.00 20.00    +0.025 H 
ATOM     51 H51  LIG A   1      21.331  16.234   8.089  1.00 20.00    +0.025 H 
ATOM     52 H52  LIG A   1      20.203  17.003   5.844  1.00 20.00    +0.031 H 
ATOM     53 H53  LIG A   1      18.570  17.603   5.855  1.00 20.00    +0.031 H 
ATOM     54 H54  LIG A   1      19.080  19.622   6.830  1.00 20.00    +0.060 H 
ATOM     55 H55  LIG A   1      20.109  19.339   4.846  1.00 20.00    +0.210 HD
ATOM     56 H56  LIG A   1      21.676  18.397   7.861  1.00 20.00    +0.031 H 
ATOM     57 H57  LIG A   1      21.198  20.050   8.100  1.00 20.00    +0.031 H 
ATOM     58 H58  LIG A   1      21.759  18.965  10.467  1.00 20.00    +0.025 H 
ATOM     59 H59  LIG A   1      20.513  18.058  11.314  1.00 20.00    +0.025 H 
ATOM     60 H60  LIG A   1      21.502  17.265  10.079  1.00 20.00    +0.025 H 
ATOM     61 H61  LIG A   1      19.953  20.695   9.982  1.00 20.00    +0.025 H 
ATOM     62 H62  LIG A   1      18.691  19.691  10.694  1.00 20.00    +0.025 H 
ATOM     63 H63  LIG A   1      18.525  20.276   9.032  1.00 20.00    +0.025 H 
ATOM     64 H64  LIG A   1      16.632  12.261   0.738  1.00 20.00    +0.189 HD
ATOM     65 H65  LIG A   1      14.683  10.110  -1.005  1.00 20.00    +0.157 HD
ATOM     66 H66  LIG A   1      14.693   8.911   0.203  1.00 20.00    +0.157 HD
ATOM     67 H67  LIG A   1      15.501  11.133   2.750  1.00 20.00    +0.037 H 
ATOM     68 H68  LIG A   1      15.484   9.407   2.363  1.00 20.00    +0.037 H 
ATOM     69 H69  LIG A   1      17.865   9.656   1.460  1.00 20.00    +0.049 H 
ATOM     70 H70  LIG A   1      17.707   9.764   3.202  1.00 20.00    +0.049 H 
ATOM     71 H71  LIG A   1      18.888  11.603   1.563  1.00 20.00    +0.160 HD
ATOM     72 H72  LIG A   1      16.929  11.372   4.681  1.00 20.00    +0.064 H 
ATOM     73 H73  LIG A   1      17.304  12.885   6.562  1.00 20.00    +0.063 H 
ATOM     74 H74  LIG A   1      22.317  17.119   7.155  1.00 20.00    +0.063 H 
ATOM     75 H75  LIG A   1      22.795  18.844   8.814  1.00 20.00    +0.064 H 
ATOM     76 H76  LIG A   1      22.001  20.049  10.653  1.00 20.00    +0.160 HD
ATOM     77 H77  LIG A   1      19.223  21.095  10.745  1.00 20.00    +0.049 H 
ATOM     78 H78  LIG A   1      19.782  19.827  11.858  1.00 20.00    +0.049 H 
ATOM     79 H79  LIG A   1      21.643  21.339  12.598  1.00 20.00    +0.030 H 
ATOM     80 H80  LIG A   1      20.025  21.938  12.967  1.00 20.00    +0.030 H 
ATOM     81 H81  LIG A   1      20.085  23.387  10.929  1.00 20.00    +0.043 H 
ATOM     82 H82  LIG A   1      21.722  22.872  10.574  1.00 20.00    +0.043 H 
ATOM     83 H83  LIG A   1      20.909  24.152  13.105  1.00 20.00    +0.122 HD
ATOM     84 H84  LIG A   1      22.934  23.044  13.382  1.00 20.00    +0.043 H 
ATOM     85 H85  LIG A   1      23.520  23.711  11.858  1.00 20.00    +0.043 H 
ATOM     86 H86  LIG A   1      24.416  24.914  13.800  1.00 20.00    +0.028 H 
ATOM     87 H87  LIG A   1      23.534  25.959  12.706  1.00 20.00    +0.028 H 
ATOM     88 H88  LIG A   1      21.676  26.185  14.239  1.00 20.00    +0.028 H 
ATOM     89 H89  LIG A   1      23.179  26.501  15.073  1.00 20.00    +0.028 H 
ATOM     90 H90  LIG A   1      23.087  24.016  15.885  1.00 20.00    +0.043 H 
ATOM     91 H91  LIG A   1      22.037  25.218  16.638  1.00 20.00    +0.043 H 
ATOM     92 H92  LIG A   1      20.244  24.523  15.345  1.00 20.00    +0.118 HD
ATOM     93 H93  LIG A   1      20.870  23.239  16.118  1.00 20.00    +0.118 HD
ATOM     94 H94  LIG A   1      18.577  19.321   9.535  1.00 20.00    +0.064 H 
ATOM     95 H95  LIG A   1      18.095  17.612   7.883  1.00 20.00    +0.063 H 
ATOM     96 H96  LIG A   1      21.068  17.078   4.818  1.00 20.00    +0.105 H 
ATOM     97 H97  LIG A   1      19.639  13.704   2.268  1.00 20.00    +0.068 H 
ENDROOT
TORSDOF 0
                                                                                                    
ENDMDL
