ROOT
ATOM      1 C1   LIG A   1       9.403  -0.712   0.260  1.00 20.00    -0.060 C 
ATOM      2 C2   LIG A   1       7.949  -1.205   0.134  1.00 20.00    -0.016 C 
ATOM      3 C3   LIG A   1       7.520  -1.695   1.561  1.00 20.00    -0.023 C 
ATOM      4 C4   LIG A   1       6.047  -1.952   1.703  1.00 20.00    -0.048 A 
ATOM      5 C5   LIG A   1       5.252  -1.041   2.404  1.00 20.00    -0.058 A 
ATOM      6 C6   LIG A   1       3.895  -0.961   2.117  1.00 20.00    -0.051 A 
ATOM      7 C7   LIG A   1       3.368  -1.745   1.087  1.00 20.00    +0.017 A 
ATOM      8 C8   LIG A   1       4.092  -2.855   0.638  1.00 20.00    -0.051 A 
ATOM      9 C9   LIG A   1       5.441  -2.967   0.960  1.00 20.00    -0.058 A 
ATOM     10 C10  LIG A   1       2.207  -1.262   0.311  1.00 20.00    +0.140 C 
ATOM     11 C11  LIG A   1       2.279  -1.058  -1.023  1.00 20.00    +0.047 C 
ATOM     12 C12  LIG A   1       3.506  -0.919  -1.873  1.00 20.00    +0.256 C 
ATOM     13 O13  LIG A   1       3.401  -1.113  -3.083  1.00 20.00    -0.269 OA
ATOM     14 N14  LIG A   1       4.533  -0.189  -1.288  1.00 20.00    -0.278 NA
ATOM     15 C15  LIG A   1       4.459   1.271  -1.456  1.00 20.00    +0.029 C 
ATOM     16 C16  LIG A   1       3.098   1.949  -1.163  1.00 20.00    -0.034 C 
ATOM     17 C17  LIG A   1       2.777   1.988   0.335  1.00 20.00    -0.034 C 
ATOM     18 C18  LIG A   1       1.303   2.246   0.707  1.00 20.00    +0.085 C 
ATOM     19 C19  LIG A   1       1.228   2.445   2.216  1.00 20.00    +0.311 C 
ATOM     20 O20  LIG A   1       1.386   1.605   3.086  1.00 20.00    -0.252 OA
ATOM     21 O21  LIG A   1       0.999   3.733   2.559  1.00 20.00    -0.481 OA
ATOM     22 C22  LIG A   1       0.215   1.283   0.241  1.00 20.00    +0.009 A 
ATOM     23 C23  LIG A   1      -0.874   1.849  -0.451  1.00 20.00    -0.052 A 
ATOM     24 C24  LIG A   1      -1.981   1.086  -0.854  1.00 20.00    -0.038 A 
ATOM     25 C25  LIG A   1      -2.078  -0.269  -0.544  1.00 20.00    +0.038 A 
ATOM     26 N26  LIG A   1      -3.118  -1.094  -0.965  1.00 20.00    -0.385 NA
ATOM     27 C27  LIG A   1      -4.414  -0.571  -1.380  1.00 20.00    +0.016 C 
ATOM     28 C28  LIG A   1      -5.241  -0.110  -0.179  1.00 20.00    -0.023 C 
ATOM     29 C29  LIG A   1      -6.620   0.377  -0.626  1.00 20.00    -0.003 C 
ATOM     30 N30  LIG A   1      -7.412   0.760   0.543  1.00 20.00    -0.317 NA
ATOM     31 C31  LIG A   1      -8.736   1.269   0.184  1.00 20.00    -0.005 C 
ATOM     32 C32  LIG A   1      -9.845   0.308   0.624  1.00 20.00    -0.039 C 
ATOM     33 C33  LIG A   1      -9.886  -1.036  -0.113  1.00 20.00    -0.040 C 
ATOM     34 C34  LIG A   1     -10.124  -0.948  -1.624  1.00 20.00    -0.008 C 
ATOM     35 N35  LIG A   1     -11.411  -0.354  -1.968  1.00 20.00    -0.330 NA
ATOM     36 C36  LIG A   1      -0.989  -0.848   0.114  1.00 20.00    +0.004 A 
ATOM     37 C37  LIG A   1       0.141  -0.099   0.491  1.00 20.00    +0.133 A 
ATOM     38 O38  LIG A   1       1.137  -0.832   1.103  1.00 20.00    -0.456 OA
ATOM     39 C39  LIG A   1       5.775  -0.841  -1.276  1.00 20.00    +0.246 C 
ATOM     40 O40  LIG A   1       5.943  -1.943  -1.813  1.00 20.00    -0.273 OA
ATOM     41 C41  LIG A   1       6.979  -0.142  -0.531  1.00 20.00    +0.088 C 
ATOM     42 N42  LIG A   1       7.699   0.665  -1.543  1.00 20.00    -0.320 NA
ATOM     43 N43  LIG A   1       3.137   1.388   0.202  1.00 20.00    -0.287 NA
ATOM     44 C44  LIG A   1       3.370   0.113   0.212  1.00 20.00    +0.110 C 
ATOM     45 N45  LIG A   1       4.604  -0.323  -0.164  1.00 20.00    -0.386 NA
ATOM     46 C46  LIG A   1       2.300  -0.884   0.653  1.00 20.00    +0.075 C 
ATOM     47 N47  LIG A   1       1.030  -0.473   0.098  1.00 20.00    -0.348 NA
ATOM     48 C48  LIG A   1      -0.160  -0.978   0.576  1.00 20.00    +0.237 C 
ATOM     49 O49  LIG A   1      -0.233  -1.694   1.570  1.00 20.00    -0.273 OA
ATOM     50 C50  LIG A   1      -1.372  -0.612  -0.298  1.00 20.00    +0.087 C 
ATOM     51 C51  LIG A   1      -2.681  -0.497   0.477  1.00 20.00    -0.027 C 
ATOM     52 C52  LIG A   1      -3.302   0.814   0.013  1.00 20.00    -0.039 C 
ATOM     53 C53  LIG A   1      -2.541   1.163  -1.250  1.00 20.00    -0.004 C 
ATOM     54 N54  LIG A   1      -1.176   0.706  -0.966  1.00 20.00    -0.306 NA
ATOM     55 H55  LIG A   1       9.860  -0.553  -0.722  1.00 20.00    +0.023 H 
ATOM     56 H56  LIG A   1      10.021  -1.453   0.779  1.00 20.00    +0.023 H 
ATOM     57 H57  LIG A   1       9.455   0.224   0.826  1.00 20.00    +0.023 H 
ATOM     58 H58  LIG A   1       7.983  -2.092  -0.513  1.00 20.00    +0.032 H 
ATOM     59 H59  LIG A   1       7.831  -0.953   2.308  1.00 20.00    +0.032 H 
ATOM     60 H60  LIG A   1       8.065  -2.615   1.810  1.00 20.00    +0.032 H 
ATOM     61 H61  LIG A   1       5.696  -0.304   3.068  1.00 20.00    +0.063 H 
ATOM     62 H62  LIG A   1       3.304  -0.177   2.582  1.00 20.00    +0.063 H 
ATOM     63 H63  LIG A   1       3.679  -3.530  -0.111  1.00 20.00    +0.063 H 
ATOM     64 H64  LIG A   1       6.041  -3.721   0.453  1.00 20.00    +0.063 H 
ATOM     65 H65  LIG A   1       1.399  -0.778  -1.596  1.00 20.00    +0.072 H 
ATOM     66 H66  LIG A   1       4.722   1.474  -2.502  1.00 20.00    +0.050 H 
ATOM     67 H67  LIG A   1       5.220   1.756  -0.839  1.00 20.00    +0.050 H 
ATOM     68 H68  LIG A   1       2.296   1.481  -1.740  1.00 20.00    +0.029 H 
ATOM     69 H69  LIG A   1       3.149   2.985  -1.522  1.00 20.00    +0.029 H 
ATOM     70 H70  LIG A   1       3.128   1.086   0.815  1.00 20.00    +0.028 H 
ATOM     71 H71  LIG A   1       3.392   2.782   0.782  1.00 20.00    +0.028 H 
ATOM     72 H72  LIG A   1       1.075   3.227   0.263  1.00 20.00    +0.047 H 
ATOM     73 H73  LIG A   1       0.966   3.707   3.539  1.00 20.00    +0.296 HD
ATOM     74 H74  LIG A   1      -0.884   2.912  -0.691  1.00 20.00    +0.063 H 
ATOM     75 H75  LIG A   1      -2.767   1.590  -1.406  1.00 20.00    +0.064 H 
ATOM     76 H76  LIG A   1      -3.194  -1.944  -0.410  1.00 20.00    +0.160 HD
ATOM     77 H77  LIG A   1      -4.947  -1.384  -1.888  1.00 20.00    +0.049 H 
ATOM     78 H78  LIG A   1      -4.308   0.225  -2.125  1.00 20.00    +0.049 H 
ATOM     79 H79  LIG A   1      -4.720   0.693   0.354  1.00 20.00    +0.030 H 
ATOM     80 H80  LIG A   1      -5.350  -0.940   0.532  1.00 20.00    +0.030 H 
ATOM     81 H81  LIG A   1      -6.501   1.234  -1.301  1.00 20.00    +0.043 H 
ATOM     82 H82  LIG A   1      -7.122  -0.424  -1.178  1.00 20.00    +0.043 H 
ATOM     83 H83  LIG A   1      -6.907   1.478   1.064  1.00 20.00    +0.122 HD
ATOM     84 H84  LIG A   1      -8.821   1.516  -0.881  1.00 20.00    +0.043 H 
ATOM     85 H85  LIG A   1      -8.887   2.216   0.717  1.00 20.00    +0.043 H 
ATOM     86 H86  LIG A   1     -10.811   0.817   0.515  1.00 20.00    +0.028 H 
ATOM     87 H87  LIG A   1      -9.739   0.106   1.698  1.00 20.00    +0.028 H 
ATOM     88 H88  LIG A   1     -10.679  -1.649   0.336  1.00 20.00    +0.028 H 
ATOM     89 H89  LIG A   1      -8.951  -1.581   0.064  1.00 20.00    +0.028 H 
ATOM     90 H90  LIG A   1     -10.092  -1.959  -2.045  1.00 20.00    +0.043 H 
ATOM     91 H91  LIG A   1      -9.327  -0.383  -2.115  1.00 20.00    +0.043 H 
ATOM     92 H92  LIG A   1     -11.466   0.596  -1.604  1.00 20.00    +0.118 HD
ATOM     93 H93  LIG A   1     -12.158  -0.873  -1.509  1.00 20.00    +0.118 HD
ATOM     94 H94  LIG A   1      -0.996  -1.915   0.329  1.00 20.00    +0.068 H 
ATOM     95 H95  LIG A   1       6.596   0.525   0.248  1.00 20.00    +0.057 H 
ATOM     96 H96  LIG A   1       7.069   1.254  -2.080  1.00 20.00    +0.119 HD
ATOM     97 H97  LIG A   1       8.374   1.276  -1.089  1.00 20.00    +0.119 HD
ATOM     98 H98  LIG A   1       2.168   1.542   0.514  1.00 20.00    +0.189 HD
ATOM     99 H99  LIG A   1       5.275   0.439  -0.205  1.00 20.00    +0.157 HD
ATOM    100 H100 LIG A   1       4.962  -1.147   0.304  1.00 20.00    +0.157 HD
ATOM    101 H101 LIG A   1       2.534  -1.888   0.285  1.00 20.00    +0.058 H 
ATOM    102 H102 LIG A   1       2.246  -0.898   1.746  1.00 20.00    +0.058 H 
ATOM    103 H103 LIG A   1       1.004  -0.069  -0.837  1.00 20.00    +0.163 HD
ATOM    104 H104 LIG A   1      -1.456  -1.388  -1.069  1.00 20.00    +0.057 H 
ATOM    105 H105 LIG A   1      -3.341  -1.335   0.221  1.00 20.00    +0.029 H 
ATOM    106 H106 LIG A   1      -2.553  -0.493   1.565  1.00 20.00    +0.029 H 
ATOM    107 H107 LIG A   1      -3.144   1.587   0.776  1.00 20.00    +0.028 H 
ATOM    108 H108 LIG A   1      -4.379   0.724  -0.159  1.00 20.00    +0.028 H 
ATOM    109 H109 LIG A   1      -2.943   0.625  -2.117  1.00 20.00    +0.043 H 
ATOM    110 H110 LIG A   1      -2.570   2.234  -1.469  1.00 20.00    +0.043 H 
ATOM    111 H111 LIG A   1      -0.779   1.345  -0.273  1.00 20.00    +0.123 HD
ENDROOT
TORSDOF 0
