ROOT
ATOM      1 C1   LIG A   1      -7.614   2.748  -0.018  1.00 20.00    -0.060 C 
ATOM      2 C2   LIG A   1      -6.599   1.718  -0.549  1.00 20.00    -0.016 C 
ATOM      3 C3   LIG A   1      -5.187   2.065  -0.018  1.00 20.00    -0.023 C 
ATOM      4 C4   LIG A   1      -4.040   1.639  -0.923  1.00 20.00    -0.046 C 
ATOM      5 C5   LIG A   1      -2.725   1.657  -0.604  1.00 20.00    -0.059 C 
ATOM      6 C6   LIG A   1      -2.304   1.236   0.726  1.00 20.00    -0.054 C 
ATOM      7 C7   LIG A   1      -1.356   0.296   0.966  1.00 20.00    +0.009 C 
ATOM      8 C8   LIG A   1      -0.382  -0.059  -0.031  1.00 20.00    +0.131 A 
ATOM      9 C9   LIG A   1      -0.504  -0.739  -1.237  1.00 20.00    -0.015 A 
ATOM     10 C10  LIG A   1       0.789  -0.869  -1.799  1.00 20.00    -0.015 A 
ATOM     11 C11  LIG A   1       1.661  -0.276  -0.912  1.00 20.00    +0.134 A 
ATOM     12 C12  LIG A   1       3.107  -0.079  -0.868  1.00 20.00    +0.017 A 
ATOM     13 C13  LIG A   1       3.939  -0.640  -1.843  1.00 20.00    -0.049 A 
ATOM     14 C14  LIG A   1       5.330  -0.456  -1.803  1.00 20.00    -0.038 A 
ATOM     15 C15  LIG A   1       5.936   0.271  -0.775  1.00 20.00    +0.034 A 
ATOM     16 N16  LIG A   1       7.307   0.554  -0.720  1.00 20.00    -0.385 NA
ATOM     17 C17  LIG A   1       8.250  -0.338  -1.396  1.00 20.00    +0.022 C 
ATOM     18 C18  LIG A   1       9.681   0.162  -1.208  1.00 20.00    +0.022 C 
ATOM     19 C19  LIG A   1      10.149  -0.061   0.212  1.00 20.00    +0.092 C 
ATOM     20 N20  LIG A   1      10.808  -1.117   0.559  1.00 20.00    -0.289 NA
ATOM     21 N21  LIG A   1       9.866   0.869   1.165  1.00 20.00    -0.388 NA
ATOM     22 C22  LIG A   1       5.095   0.867   0.174  1.00 20.00    -0.038 A 
ATOM     23 C23  LIG A   1       3.707   0.685   0.140  1.00 20.00    -0.049 A 
ATOM     24 O24  LIG A   1       0.956   0.206   0.149  1.00 20.00    -0.456 OA
ATOM     25 C25  LIG A   1      -1.430  -0.462   2.288  1.00 20.00    +0.085 C 
ATOM     26 C26  LIG A   1      -0.047  -0.526   2.924  1.00 20.00    +0.311 C 
ATOM     27 O27  LIG A   1       0.543   0.411   3.442  1.00 20.00    -0.252 OA
ATOM     28 O28  LIG A   1       0.544  -1.735   2.861  1.00 20.00    -0.481 OA
ATOM     29 C29  LIG A   1      -2.092  -1.854   2.081  1.00 20.00    -0.034 C 
ATOM     30 C30  LIG A   1      -3.593  -1.789   1.722  1.00 20.00    -0.034 C 
ATOM     31 C31  LIG A   1      -3.965  -2.043   0.234  1.00 20.00    +0.025 C 
ATOM     32 N32  LIG A   1      -4.866  -1.018  -0.336  1.00 20.00    -0.318 NA
ATOM     33 C33  LIG A   1      -4.639  -0.600  -1.643  1.00 20.00    +0.007 C 
ATOM     34 C34  LIG A   1      -4.350   0.673  -1.973  1.00 20.00    -0.043 C 
ATOM     35 C35  LIG A   1      -6.063  -0.762   0.342  1.00 20.00    +0.243 C 
ATOM     36 O36  LIG A   1      -6.376  -1.407   1.352  1.00 20.00    -0.273 OA
ATOM     37 C37  LIG A   1      -7.078   0.288  -0.191  1.00 20.00    +0.088 C 
ATOM     38 N38  LIG A   1      -7.907  -0.294  -1.274  1.00 20.00    -0.320 NA
ATOM     39 O39  LIG A   1       2.020  -1.132  -0.342  1.00 20.00    -0.504 OA
ATOM     40 C40  LIG A   1       0.799  -0.553  -0.136  1.00 20.00    +0.157 A 
ATOM     41 C41  LIG A   1      -0.354  -1.310   0.040  1.00 20.00    -0.016 A 
ATOM     42 C42  LIG A   1      -1.572  -0.656   0.245  1.00 20.00    -0.058 A 
ATOM     43 C43  LIG A   1      -1.629   0.741   0.273  1.00 20.00    -0.058 A 
ATOM     44 C44  LIG A   1      -0.467   1.494   0.095  1.00 20.00    -0.016 A 
ATOM     45 C45  LIG A   1       0.738   0.839  -0.108  1.00 20.00    +0.157 A 
ATOM     46 O46  LIG A   1       1.876   1.574  -0.283  1.00 20.00    -0.504 OA
ATOM     47 H47  LIG A   1      -7.648   2.743   1.077  1.00 20.00    +0.023 H 
ATOM     48 H48  LIG A   1      -7.347   3.759  -0.343  1.00 20.00    +0.023 H 
ATOM     49 H49  LIG A   1      -8.620   2.536  -0.394  1.00 20.00    +0.023 H 
ATOM     50 H50  LIG A   1      -6.612   1.848  -1.640  1.00 20.00    +0.032 H 
ATOM     51 H51  LIG A   1      -5.106   3.157   0.067  1.00 20.00    +0.032 H 
ATOM     52 H52  LIG A   1      -5.076   1.674   0.999  1.00 20.00    +0.032 H 
ATOM     53 H53  LIG A   1      -2.017   1.405  -1.392  1.00 20.00    +0.063 H 
ATOM     54 H54  LIG A   1      -2.986   1.492   1.534  1.00 20.00    +0.063 H 
ATOM     55 H55  LIG A   1      -1.427  -1.100  -1.664  1.00 20.00    +0.066 H 
ATOM     56 H56  LIG A   1       1.049  -1.343  -2.734  1.00 20.00    +0.066 H 
ATOM     57 H57  LIG A   1       3.522  -1.227  -2.657  1.00 20.00    +0.063 H 
ATOM     58 H58  LIG A   1       5.919  -0.895  -2.600  1.00 20.00    +0.064 H 
ATOM     59 H59  LIG A   1       7.591   0.725   0.248  1.00 20.00    +0.160 HD
ATOM     60 H60  LIG A   1       8.047  -0.351  -2.472  1.00 20.00    +0.049 H 
ATOM     61 H61  LIG A   1       8.148  -1.358  -1.008  1.00 20.00    +0.049 H 
ATOM     62 H62  LIG A   1       9.758   1.229  -1.448  1.00 20.00    +0.037 H 
ATOM     63 H63  LIG A   1      10.351  -0.380  -1.885  1.00 20.00    +0.037 H 
ATOM     64 H64  LIG A   1      10.953  -1.741  -0.241  1.00 20.00    +0.189 HD
ATOM     65 H65  LIG A   1      10.425   0.729   2.002  1.00 20.00    +0.157 HD
ATOM     66 H66  LIG A   1       9.838   1.836   0.861  1.00 20.00    +0.157 HD
ATOM     67 H67  LIG A   1       5.516   1.488   0.961  1.00 20.00    +0.064 H 
ATOM     68 H68  LIG A   1       3.099   1.161   0.908  1.00 20.00    +0.063 H 
ATOM     69 H69  LIG A   1      -2.044   0.080   3.021  1.00 20.00    +0.047 H 
ATOM     70 H70  LIG A   1       1.442  -1.571   3.218  1.00 20.00    +0.296 HD
ATOM     71 H71  LIG A   1      -1.544  -2.454   1.345  1.00 20.00    +0.028 H 
ATOM     72 H72  LIG A   1      -2.007  -2.400   3.031  1.00 20.00    +0.028 H 
ATOM     73 H73  LIG A   1      -4.007  -0.842   2.086  1.00 20.00    +0.029 H 
ATOM     74 H74  LIG A   1      -4.093  -2.574   2.305  1.00 20.00    +0.029 H 
ATOM     75 H75  LIG A   1      -3.062  -2.102  -0.380  1.00 20.00    +0.050 H 
ATOM     76 H76  LIG A   1      -4.482  -3.007   0.151  1.00 20.00    +0.050 H 
ATOM     77 H77  LIG A   1      -4.617  -1.387  -2.392  1.00 20.00    +0.082 H 
ATOM     78 H78  LIG A   1      -4.144   0.955  -3.001  1.00 20.00    +0.064 H 
ATOM     79 H79  LIG A   1      -7.772   0.403   0.655  1.00 20.00    +0.057 H 
ATOM     80 H80  LIG A   1      -7.305  -0.528  -2.061  1.00 20.00    +0.119 HD
ATOM     81 H81  LIG A   1      -8.290  -1.180  -0.937  1.00 20.00    +0.119 HD
ATOM     82 H82  LIG A   1       1.900  -2.097  -0.333  1.00 20.00    +0.293 HD
ATOM     83 H83  LIG A   1      -0.328  -2.394   0.021  1.00 20.00    +0.066 H 
ATOM     84 H84  LIG A   1      -2.482  -1.235   0.385  1.00 20.00    +0.062 H 
ATOM     85 H85  LIG A   1      -2.579   1.244   0.433  1.00 20.00    +0.062 H 
ATOM     86 H86  LIG A   1      -0.502   2.579   0.115  1.00 20.00    +0.066 H 
ATOM     87 H87  LIG A   1       2.579   0.906  -0.406  1.00 20.00    +0.293 HD
ENDROOT
TORSDOF 0
