ROOT
ATOM      1 C1   LIG A   1      -4.623  -0.235   4.601  1.00 20.00    -0.060 C 
ATOM      2 C2   LIG A   1      -3.718  -0.478   3.377  1.00 20.00    -0.016 C 
ATOM      3 C3   LIG A   1      -4.108  -1.854   2.735  1.00 20.00    -0.023 C 
ATOM      4 C4   LIG A   1      -4.814  -1.753   1.407  1.00 20.00    -0.044 A 
ATOM      5 C5   LIG A   1      -6.122  -1.274   1.320  1.00 20.00    -0.058 A 
ATOM      6 C6   LIG A   1      -6.601  -0.793   0.104  1.00 20.00    -0.054 A 
ATOM      7 C7   LIG A   1      -5.763  -0.750  -1.027  1.00 20.00    +0.009 A 
ATOM      8 C8   LIG A   1      -4.506  -1.378  -0.961  1.00 20.00    +0.130 A 
ATOM      9 C9   LIG A   1      -4.069  -1.942   0.237  1.00 20.00    -0.016 A 
ATOM     10 O10  LIG A   1      -3.687  -1.314  -2.067  1.00 20.00    -0.464 OA
ATOM     11 C11  LIG A   1      -2.325  -1.194  -1.881  1.00 20.00    +0.104 C 
ATOM     12 C12  LIG A   1      -1.626  -0.119  -1.455  1.00 20.00    +0.082 C 
ATOM     13 C13  LIG A   1      -0.149  -0.188  -1.492  1.00 20.00    -0.010 A 
ATOM     14 C14  LIG A   1       0.537  -1.171  -0.769  1.00 20.00    -0.052 A 
ATOM     15 C15  LIG A   1       1.934  -1.247  -0.813  1.00 20.00    -0.038 A 
ATOM     16 C16  LIG A   1       2.691  -0.361  -1.593  1.00 20.00    +0.034 A 
ATOM     17 N17  LIG A   1       4.085  -0.455  -1.533  1.00 20.00    -0.385 NA
ATOM     18 C18  LIG A   1       4.908   0.268  -2.499  1.00 20.00    +0.016 C 
ATOM     19 C19  LIG A   1       6.395  -0.005  -2.255  1.00 20.00    -0.023 C 
ATOM     20 C20  LIG A   1       6.947   0.644  -0.977  1.00 20.00    -0.003 C 
ATOM     21 N21  LIG A   1       6.363   0.157   0.275  1.00 20.00    -0.317 NA
ATOM     22 C22  LIG A   1       6.807  -1.178   0.674  1.00 20.00    -0.005 C 
ATOM     23 C23  LIG A   1       8.236  -1.240   1.226  1.00 20.00    -0.039 C 
ATOM     24 C24  LIG A   1       8.424  -0.665   2.635  1.00 20.00    -0.040 C 
ATOM     25 C25  LIG A   1       8.116   0.824   2.762  1.00 20.00    -0.008 C 
ATOM     26 N26  LIG A   1       8.561   1.312   4.069  1.00 20.00    -0.330 NA
ATOM     27 C27  LIG A   1       2.003   0.647  -2.273  1.00 20.00    -0.038 A 
ATOM     28 C28  LIG A   1       0.603   0.724  -2.238  1.00 20.00    -0.052 A 
ATOM     29 C29  LIG A   1      -2.319   1.171  -1.104  1.00 20.00    +0.264 C 
ATOM     30 O30  LIG A   1      -2.083   2.193  -1.749  1.00 20.00    -0.268 OA
ATOM     31 N31  LIG A   1      -3.234   1.131  -0.059  1.00 20.00    -0.277 NA
ATOM     32 C32  LIG A   1      -4.390   2.031  -0.161  1.00 20.00    +0.029 C 
ATOM     33 C33  LIG A   1      -4.997   2.343  -1.549  1.00 20.00    -0.034 C 
ATOM     34 C34  LIG A   1      -5.230   1.227  -2.587  1.00 20.00    -0.034 C 
ATOM     35 C35  LIG A   1      -6.204   0.075  -2.227  1.00 20.00    +0.085 C 
ATOM     36 C36  LIG A   1      -6.490  -0.805  -3.443  1.00 20.00    +0.311 C 
ATOM     37 O37  LIG A   1      -6.426  -2.021  -3.523  1.00 20.00    -0.252 OA
ATOM     38 O38  LIG A   1      -6.926  -0.098  -4.509  1.00 20.00    -0.481 OA
ATOM     39 C39  LIG A   1      -2.809   0.610   1.176  1.00 20.00    +0.246 C 
ATOM     40 O40  LIG A   1      -1.716   0.052   1.334  1.00 20.00    -0.273 OA
ATOM     41 C41  LIG A   1      -3.725   0.776   2.431  1.00 20.00    +0.088 C 
ATOM     42 N42  LIG A   1      -3.229   1.965   3.172  1.00 20.00    -0.320 NA
ATOM     43 O43  LIG A   1       1.825  -1.310  -0.660  1.00 20.00    -0.504 OA
ATOM     44 C44  LIG A   1       0.715  -0.622  -0.253  1.00 20.00    +0.157 A 
ATOM     45 C45  LIG A   1      -0.410  -1.270   0.244  1.00 20.00    -0.016 A 
ATOM     46 C46  LIG A   1      -1.513  -0.509   0.643  1.00 20.00    -0.058 A 
ATOM     47 C47  LIG A   1      -1.483   0.885   0.543  1.00 20.00    -0.058 A 
ATOM     48 C48  LIG A   1      -0.348   1.528   0.045  1.00 20.00    -0.016 A 
ATOM     49 C49  LIG A   1       0.742   0.767  -0.350  1.00 20.00    +0.157 A 
ATOM     50 O50  LIG A   1       1.852   1.395  -0.838  1.00 20.00    -0.504 OA
ATOM     51 H51  LIG A   1      -4.306   0.645   5.170  1.00 20.00    +0.023 H 
ATOM     52 H52  LIG A   1      -5.666  -0.089   4.302  1.00 20.00    +0.023 H 
ATOM     53 H53  LIG A   1      -4.582  -1.087   5.288  1.00 20.00    +0.023 H 
ATOM     54 H54  LIG A   1      -2.700  -0.606   3.774  1.00 20.00    +0.032 H 
ATOM     55 H55  LIG A   1      -3.187  -2.440   2.605  1.00 20.00    +0.032 H 
ATOM     56 H56  LIG A   1      -4.724  -2.453   3.418  1.00 20.00    +0.032 H 
ATOM     57 H57  LIG A   1      -6.737  -1.177   2.213  1.00 20.00    +0.063 H 
ATOM     58 H58  LIG A   1      -7.597  -0.355   0.073  1.00 20.00    +0.063 H 
ATOM     59 H59  LIG A   1      -3.072  -2.375   0.305  1.00 20.00    +0.067 H 
ATOM     60 H60  LIG A   1      -1.850  -2.102  -2.236  1.00 20.00    +0.105 H 
ATOM     61 H61  LIG A   1      -0.007  -1.870  -0.136  1.00 20.00    +0.063 H 
ATOM     62 H62  LIG A   1       2.431  -2.006  -0.214  1.00 20.00    +0.064 H 
ATOM     63 H63  LIG A   1       4.380  -1.420  -1.401  1.00 20.00    +0.160 HD
ATOM     64 H64  LIG A   1       4.654  -0.060  -3.514  1.00 20.00    +0.049 H 
ATOM     65 H65  LIG A   1       4.730   1.348  -2.432  1.00 20.00    +0.049 H 
ATOM     66 H66  LIG A   1       6.955   0.411  -3.103  1.00 20.00    +0.030 H 
ATOM     67 H67  LIG A   1       6.591  -1.083  -2.258  1.00 20.00    +0.030 H 
ATOM     68 H68  LIG A   1       6.752   1.722  -1.028  1.00 20.00    +0.043 H 
ATOM     69 H69  LIG A   1       8.038   0.549  -0.962  1.00 20.00    +0.043 H 
ATOM     70 H70  LIG A   1       5.342   0.131   0.143  1.00 20.00    +0.122 HD
ATOM     71 H71  LIG A   1       6.124  -1.544   1.450  1.00 20.00    +0.043 H 
ATOM     72 H72  LIG A   1       6.709  -1.881  -0.161  1.00 20.00    +0.043 H 
ATOM     73 H73  LIG A   1       8.944  -0.763   0.538  1.00 20.00    +0.028 H 
ATOM     74 H74  LIG A   1       8.529  -2.298   1.263  1.00 20.00    +0.028 H 
ATOM     75 H75  LIG A   1       9.467  -0.848   2.927  1.00 20.00    +0.028 H 
ATOM     76 H76  LIG A   1       7.802  -1.229   3.343  1.00 20.00    +0.028 H 
ATOM     77 H77  LIG A   1       8.620   1.394   1.974  1.00 20.00    +0.043 H 
ATOM     78 H78  LIG A   1       7.040   1.003   2.683  1.00 20.00    +0.043 H 
ATOM     79 H79  LIG A   1       8.337   2.304   4.143  1.00 20.00    +0.118 HD
ATOM     80 H80  LIG A   1       9.577   1.245   4.122  1.00 20.00    +0.118 HD
ATOM     81 H81  LIG A   1       2.531   1.399  -2.849  1.00 20.00    +0.064 H 
ATOM     82 H82  LIG A   1       0.112   1.517  -2.800  1.00 20.00    +0.063 H 
ATOM     83 H83  LIG A   1      -5.209   1.637   0.439  1.00 20.00    +0.050 H 
ATOM     84 H84  LIG A   1      -4.097   2.978   0.311  1.00 20.00    +0.050 H 
ATOM     85 H85  LIG A   1      -4.369   3.103  -2.031  1.00 20.00    +0.029 H 
ATOM     86 H86  LIG A   1      -5.958   2.848  -1.377  1.00 20.00    +0.029 H 
ATOM     87 H87  LIG A   1      -5.637   1.738  -3.470  1.00 20.00    +0.028 H 
ATOM     88 H88  LIG A   1      -4.273   0.838  -2.940  1.00 20.00    +0.028 H 
ATOM     89 H89  LIG A   1      -7.172   0.536  -1.982  1.00 20.00    +0.047 H 
ATOM     90 H90  LIG A   1      -7.084  -0.781  -5.194  1.00 20.00    +0.296 HD
ATOM     91 H91  LIG A   1      -4.759   0.980   2.167  1.00 20.00    +0.057 H 
ATOM     92 H92  LIG A   1      -2.281   1.757   3.500  1.00 20.00    +0.119 HD
ATOM     93 H93  LIG A   1      -3.119   2.753   2.533  1.00 20.00    +0.119 HD
ATOM     94 H94  LIG A   1       1.664  -2.257  -0.505  1.00 20.00    +0.293 HD
ATOM     95 H95  LIG A   1      -0.451  -2.351   0.329  1.00 20.00    +0.066 H 
ATOM     96 H96  LIG A   1      -2.401  -1.002   1.032  1.00 20.00    +0.062 H 
ATOM     97 H97  LIG A   1      -2.343   1.472   0.855  1.00 20.00    +0.062 H 
ATOM     98 H98  LIG A   1      -0.315   2.610  -0.034  1.00 20.00    +0.066 H 
ATOM     99 H99  LIG A   1       2.468   0.665  -1.052  1.00 20.00    +0.293 HD
ENDROOT
TORSDOF 0
