ROOT
ATOM      1 C1   LIG A   1      -4.570  -0.531   4.578  1.00 20.00    -0.060 C 
ATOM      2 C2   LIG A   1      -3.662  -0.704   3.345  1.00 20.00    -0.016 C 
ATOM      3 C3   LIG A   1      -4.049  -2.041   2.624  1.00 20.00    -0.023 C 
ATOM      4 C4   LIG A   1      -4.768  -1.865   1.312  1.00 20.00    -0.044 A 
ATOM      5 C5   LIG A   1      -6.077  -1.380   1.266  1.00 20.00    -0.058 A 
ATOM      6 C6   LIG A   1      -6.566  -0.825   0.085  1.00 20.00    -0.054 A 
ATOM      7 C7   LIG A   1      -5.738  -0.715  -1.048  1.00 20.00    +0.009 A 
ATOM      8 C8   LIG A   1      -4.483  -1.350  -1.032  1.00 20.00    +0.130 A 
ATOM      9 C9   LIG A   1      -4.036  -1.987   0.126  1.00 20.00    -0.016 A 
ATOM     10 O10  LIG A   1      -3.673  -1.223  -2.140  1.00 20.00    -0.464 OA
ATOM     11 C11  LIG A   1      -2.310  -1.115  -1.961  1.00 20.00    +0.104 C 
ATOM     12 C12  LIG A   1      -1.604  -0.069  -1.479  1.00 20.00    +0.082 C 
ATOM     13 C13  LIG A   1      -0.128  -0.141  -1.539  1.00 20.00    -0.010 A 
ATOM     14 C14  LIG A   1       0.563  -1.150  -0.860  1.00 20.00    -0.052 A 
ATOM     15 C15  LIG A   1       1.960  -1.226  -0.924  1.00 20.00    -0.038 A 
ATOM     16 C16  LIG A   1       2.709  -0.313  -1.678  1.00 20.00    +0.034 A 
ATOM     17 N17  LIG A   1       4.103  -0.409  -1.631  1.00 20.00    -0.385 NA
ATOM     18 C18  LIG A   1       4.928   0.378  -2.543  1.00 20.00    +0.016 C 
ATOM     19 C19  LIG A   1       6.416   0.126  -2.274  1.00 20.00    -0.023 C 
ATOM     20 C20  LIG A   1       6.920   0.728  -0.954  1.00 20.00    -0.003 C 
ATOM     21 N21  LIG A   1       6.305   0.175   0.256  1.00 20.00    -0.317 NA
ATOM     22 C22  LIG A   1       6.782  -1.157   0.626  1.00 20.00    -0.005 C 
ATOM     23 C23  LIG A   1       8.184  -1.186   1.246  1.00 20.00    -0.039 C 
ATOM     24 C24  LIG A   1       8.284  -0.638   2.675  1.00 20.00    -0.040 C 
ATOM     25 C25  LIG A   1       7.953   0.846   2.814  1.00 20.00    -0.008 C 
ATOM     26 N26  LIG A   1       8.296   1.309   4.159  1.00 20.00    -0.330 NA
ATOM     27 C27  LIG A   1       2.014   0.718  -2.317  1.00 20.00    -0.038 A 
ATOM     28 C28  LIG A   1       0.615   0.795  -2.263  1.00 20.00    -0.052 A 
ATOM     29 C29  LIG A   1      -2.283   1.200  -1.039  1.00 20.00    +0.264 C 
ATOM     30 O30  LIG A   1      -2.036   2.264  -1.607  1.00 20.00    -0.268 OA
ATOM     31 N31  LIG A   1      -3.197   1.097   0.003  1.00 20.00    -0.277 NA
ATOM     32 C32  LIG A   1      -4.349   2.006  -0.038  1.00 20.00    +0.029 C 
ATOM     33 C33  LIG A   1      -4.960   2.401  -1.402  1.00 20.00    -0.034 C 
ATOM     34 C34  LIG A   1      -5.209   1.346  -2.498  1.00 20.00    -0.034 C 
ATOM     35 C35  LIG A   1      -6.187   0.181  -2.193  1.00 20.00    +0.085 C 
ATOM     36 C36  LIG A   1      -6.493  -0.625  -3.454  1.00 20.00    +0.311 C 
ATOM     37 O37  LIG A   1      -6.419  -1.832  -3.613  1.00 20.00    -0.252 OA
ATOM     38 O38  LIG A   1      -6.961   0.143  -4.463  1.00 20.00    -0.481 OA
ATOM     39 C39  LIG A   1      -2.764   0.505   1.204  1.00 20.00    +0.246 C 
ATOM     40 O40  LIG A   1      -1.671  -0.063   1.321  1.00 20.00    -0.273 OA
ATOM     41 C41  LIG A   1      -3.671   0.601   2.472  1.00 20.00    +0.088 C 
ATOM     42 N42  LIG A   1      -3.170   1.746   3.277  1.00 20.00    -0.320 NA
ATOM     43 O43  LIG A   1       3.517   0.330  -0.625  1.00 20.00    -0.251 OA
ATOM     44 C44  LIG A   1       2.461   0.455  -0.026  1.00 20.00    +0.317 C 
ATOM     45 O45  LIG A   1       2.249   1.536   0.761  1.00 20.00    -0.480 OA
ATOM     46 C46  LIG A   1       1.324  -0.557   0.012  1.00 20.00    +0.094 C 
ATOM     47 N47  LIG A   1       0.024   0.121   0.183  1.00 20.00    -0.306 NA
ATOM     48 C48  LIG A   1      -1.043  -0.845   0.464  1.00 20.00    +0.005 C 
ATOM     49 C49  LIG A   1      -2.411  -0.164   0.618  1.00 20.00    +0.003 C 
ATOM     50 S50  LIG A   1      -2.938   0.669  -0.912  1.00 20.00    -0.178 SA
ATOM     51 H51  LIG A   1      -4.257   0.316   5.197  1.00 20.00    +0.023 H 
ATOM     52 H52  LIG A   1      -5.612  -0.369   4.286  1.00 20.00    +0.023 H 
ATOM     53 H53  LIG A   1      -4.529  -1.422   5.216  1.00 20.00    +0.023 H 
ATOM     54 H54  LIG A   1      -2.644  -0.851   3.735  1.00 20.00    +0.032 H 
ATOM     55 H55  LIG A   1      -3.124  -2.609   2.450  1.00 20.00    +0.032 H 
ATOM     56 H56  LIG A   1      -4.652  -2.687   3.275  1.00 20.00    +0.032 H 
ATOM     57 H57  LIG A   1      -6.682  -1.335   2.168  1.00 20.00    +0.063 H 
ATOM     58 H58  LIG A   1      -7.561  -0.385   0.089  1.00 20.00    +0.063 H 
ATOM     59 H59  LIG A   1      -3.042  -2.428   0.155  1.00 20.00    +0.067 H 
ATOM     60 H60  LIG A   1      -1.840  -2.002  -2.375  1.00 20.00    +0.105 H 
ATOM     61 H61  LIG A   1       0.025  -1.869  -0.246  1.00 20.00    +0.063 H 
ATOM     62 H62  LIG A   1       2.464  -2.005  -0.357  1.00 20.00    +0.064 H 
ATOM     63 H63  LIG A   1       4.400  -1.380  -1.561  1.00 20.00    +0.160 HD
ATOM     64 H64  LIG A   1       4.703   0.095  -3.578  1.00 20.00    +0.049 H 
ATOM     65 H65  LIG A   1       4.728   1.450  -2.428  1.00 20.00    +0.049 H 
ATOM     66 H66  LIG A   1       6.988   0.591  -3.087  1.00 20.00    +0.030 H 
ATOM     67 H67  LIG A   1       6.634  -0.948  -2.318  1.00 20.00    +0.030 H 
ATOM     68 H68  LIG A   1       6.706   1.805  -0.963  1.00 20.00    +0.043 H 
ATOM     69 H69  LIG A   1       8.010   0.649  -0.909  1.00 20.00    +0.043 H 
ATOM     70 H70  LIG A   1       5.292   0.119   0.081  1.00 20.00    +0.122 HD
ATOM     71 H71  LIG A   1       6.077  -1.576   1.355  1.00 20.00    +0.043 H 
ATOM     72 H72  LIG A   1       6.751  -1.831  -0.238  1.00 20.00    +0.043 H 
ATOM     73 H73  LIG A   1       8.910  -0.675   0.604  1.00 20.00    +0.028 H 
ATOM     74 H74  LIG A   1       8.507  -2.235   1.280  1.00 20.00    +0.028 H 
ATOM     75 H75  LIG A   1       9.310  -0.816   3.022  1.00 20.00    +0.028 H 
ATOM     76 H76  LIG A   1       7.630  -1.223   3.334  1.00 20.00    +0.028 H 
ATOM     77 H77  LIG A   1       8.506   1.437   2.076  1.00 20.00    +0.043 H 
ATOM     78 H78  LIG A   1       6.884   1.019   2.663  1.00 20.00    +0.043 H 
ATOM     79 H79  LIG A   1       8.071   2.301   4.233  1.00 20.00    +0.118 HD
ATOM     80 H80  LIG A   1       9.302   1.232   4.298  1.00 20.00    +0.118 HD
ATOM     81 H81  LIG A   1       2.537   1.487  -2.875  1.00 20.00    +0.064 H 
ATOM     82 H82  LIG A   1       0.117   1.608  -2.790  1.00 20.00    +0.063 H 
ATOM     83 H83  LIG A   1      -5.166   1.579   0.541  1.00 20.00    +0.050 H 
ATOM     84 H84  LIG A   1      -4.050   2.922   0.488  1.00 20.00    +0.050 H 
ATOM     85 H85  LIG A   1      -4.327   3.181  -1.845  1.00 20.00    +0.029 H 
ATOM     86 H86  LIG A   1      -5.914   2.904  -1.196  1.00 20.00    +0.029 H 
ATOM     87 H87  LIG A   1      -5.620   1.908  -3.349  1.00 20.00    +0.028 H 
ATOM     88 H88  LIG A   1      -4.257   0.972  -2.880  1.00 20.00    +0.028 H 
ATOM     89 H89  LIG A   1      -7.147   0.633  -1.908  1.00 20.00    +0.047 H 
ATOM     90 H90  LIG A   1      -7.121  -0.503  -5.184  1.00 20.00    +0.296 HD
ATOM     91 H91  LIG A   1      -4.706   0.821   2.226  1.00 20.00    +0.057 H 
ATOM     92 H92  LIG A   1      -2.214   1.528   3.571  1.00 20.00    +0.119 HD
ATOM     93 H93  LIG A   1      -3.080   2.574   2.686  1.00 20.00    +0.119 HD
ATOM     94 H94  LIG A   1       3.054   2.079   0.624  1.00 20.00    +0.296 HD
ATOM     95 H95  LIG A   1       1.325  -1.105  -0.936  1.00 20.00    +0.055 H 
ATOM     96 H96  LIG A   1       1.528  -1.245   0.839  1.00 20.00    +0.055 H 
ATOM     97 H97  LIG A   1       0.116   0.789   0.954  1.00 20.00    +0.123 HD
ATOM     98 H98  LIG A   1      -1.095  -1.593  -0.336  1.00 20.00    +0.044 H 
ATOM     99 H99  LIG A   1      -0.819  -1.378   1.396  1.00 20.00    +0.044 H 
ATOM    100 H100 LIG A   1      -3.170  -0.906   0.883  1.00 20.00    +0.039 H 
ATOM    101 H101 LIG A   1      -2.377   0.579   1.422  1.00 20.00    +0.039 H 
ATOM    102 H102 LIG A   1      -1.744   1.233  -1.162  1.00 20.00    +0.102 HD
ENDROOT
TORSDOF 0
