ROOT
ATOM      1 C1   LIG A   1      -3.211   0.921  -0.073  1.00 20.00    -0.048 C 
ATOM      2 C2   LIG A   1      -2.224  -0.217   0.125  1.00 20.00    +0.015 C 
ATOM      3 N3   LIG A   1      -0.865   0.274  -0.026  1.00 20.00    -0.357 NA
ATOM      4 C4   LIG A   1       0.242  -0.525   0.012  1.00 20.00    +0.195 C 
ATOM      5 N5   LIG A   1       0.230  -1.812   0.096  1.00 20.00    -0.269 NA
ATOM      6 N6   LIG A   1       1.403   0.187  -0.068  1.00 20.00    -0.298 NA
ATOM      7 C7   LIG A   1       2.703  -0.181   0.045  1.00 20.00    +0.192 C 
ATOM      8 N8   LIG A   1       3.153  -1.350   0.337  1.00 20.00    -0.269 NA
ATOM      9 N9   LIG A   1       3.588   0.822  -0.166  1.00 20.00    -0.370 NA
ATOM     10 N10  LIG A   1      -7.518  -1.273  -3.137  1.00 20.00    -0.289 NA
ATOM     11 C11  LIG A   1      -8.581  -0.856  -2.534  1.00 20.00    +0.092 C 
ATOM     12 N12  LIG A   1      -8.894   0.471  -2.480  1.00 20.00    -0.388 NA
ATOM     13 C13  LIG A   1      -9.491  -1.875  -1.881  1.00 20.00    +0.022 C 
ATOM     14 C14  LIG A   1      -9.396  -1.857  -0.356  1.00 20.00    +0.022 C 
ATOM     15 N15  LIG A   1      -8.055  -2.217   0.119  1.00 20.00    -0.384 NA
ATOM     16 C16  LIG A   1      -7.215  -1.178   0.547  1.00 20.00    +0.038 A 
ATOM     17 C17  LIG A   1      -7.644  -0.192   1.446  1.00 20.00    -0.038 A 
ATOM     18 C18  LIG A   1      -6.778   0.818   1.877  1.00 20.00    -0.045 A 
ATOM     19 C19  LIG A   1      -5.459   0.831   1.425  1.00 20.00    +0.065 A 
ATOM     20 C20  LIG A   1      -4.523   1.881   1.851  1.00 20.00    +0.193 C 
ATOM     21 O21  LIG A   1      -4.859   2.800   2.585  1.00 20.00    -0.289 OA
ATOM     22 C22  LIG A   1      -3.146   1.779   1.342  1.00 20.00    +0.030 C 
ATOM     23 C23  LIG A   1      -2.821   0.766   0.525  1.00 20.00    +0.138 C 
ATOM     24 C24  LIG A   1      -1.457   0.615  -0.022  1.00 20.00    +0.017 A 
ATOM     25 C25  LIG A   1      -1.271   0.206  -1.346  1.00 20.00    -0.049 A 
ATOM     26 C26  LIG A   1       0.018   0.046  -1.872  1.00 20.00    -0.038 A 
ATOM     27 C27  LIG A   1       1.162   0.306  -1.106  1.00 20.00    +0.034 A 
ATOM     28 N28  LIG A   1       2.410   0.058  -1.677  1.00 20.00    -0.385 NA
ATOM     29 C29  LIG A   1       3.648   0.543  -1.068  1.00 20.00    +0.016 C 
ATOM     30 C30  LIG A   1       4.255  -0.540  -0.174  1.00 20.00    -0.023 C 
ATOM     31 C31  LIG A   1       5.502  -0.058   0.571  1.00 20.00    -0.003 C 
ATOM     32 N32  LIG A   1       6.580   0.273  -0.360  1.00 20.00    -0.317 NA
ATOM     33 C33  LIG A   1       7.758   0.839   0.301  1.00 20.00    -0.005 C 
ATOM     34 C34  LIG A   1       8.599  -0.208   1.040  1.00 20.00    -0.039 C 
ATOM     35 C35  LIG A   1       9.826   0.389   1.739  1.00 20.00    -0.040 C 
ATOM     36 C36  LIG A   1      10.867   0.945   0.767  1.00 20.00    -0.008 C 
ATOM     37 N37  LIG A   1      12.053   1.407   1.482  1.00 20.00    -0.330 NA
ATOM     38 C38  LIG A   1       0.968   0.668   0.229  1.00 20.00    -0.038 A 
ATOM     39 C39  LIG A   1      -0.319   0.831   0.763  1.00 20.00    -0.049 A 
ATOM     40 O40  LIG A   1      -3.714  -0.206   0.097  1.00 20.00    -0.456 OA
ATOM     41 C41  LIG A   1      -5.004  -0.159   0.563  1.00 20.00    +0.140 A 
ATOM     42 C42  LIG A   1      -5.874  -1.163   0.135  1.00 20.00    +0.005 A 
ATOM     43 H43  LIG A   1      -3.057   1.710   0.671  1.00 20.00    +0.025 H 
ATOM     44 H44  LIG A   1      -3.096   1.371  -1.065  1.00 20.00    +0.025 H 
ATOM     45 H45  LIG A   1      -4.238   0.557   0.022  1.00 20.00    +0.025 H 
ATOM     46 H46  LIG A   1      -2.356  -0.648   1.124  1.00 20.00    +0.049 H 
ATOM     47 H47  LIG A   1      -2.428  -0.997  -0.617  1.00 20.00    +0.049 H 
ATOM     48 H48  LIG A   1      -0.730   1.171   0.430  1.00 20.00    +0.163 HD
ATOM     49 H49  LIG A   1      -0.729  -2.156   0.128  1.00 20.00    +0.191 HD
ATOM     50 H50  LIG A   1       1.287   1.171  -0.238  1.00 20.00    +0.173 HD
ATOM     51 H51  LIG A   1       2.308  -1.947   0.436  1.00 20.00    +0.191 HD
ATOM     52 H52  LIG A   1       4.521   0.421  -0.082  1.00 20.00    +0.159 HD
ATOM     53 H53  LIG A   1       3.502   1.226  -1.091  1.00 20.00    +0.159 HD
ATOM     54 H54  LIG A   1      -7.027  -0.477  -3.551  1.00 20.00    +0.189 HD
ATOM     55 H55  LIG A   1      -8.118   1.114  -2.588  1.00 20.00    +0.157 HD
ATOM     56 H56  LIG A   1      -9.530   0.764  -1.746  1.00 20.00    +0.157 HD
ATOM     57 H57  LIG A   1      -9.241  -2.872  -2.264  1.00 20.00    +0.037 H 
ATOM     58 H58  LIG A   1     -10.522  -1.657  -2.185  1.00 20.00    +0.037 H 
ATOM     59 H59  LIG A   1      -9.743  -0.892   0.030  1.00 20.00    +0.049 H 
ATOM     60 H60  LIG A   1     -10.091  -2.610   0.036  1.00 20.00    +0.049 H 
ATOM     61 H61  LIG A   1      -7.578  -2.812  -0.563  1.00 20.00    +0.160 HD
ATOM     62 H62  LIG A   1      -8.654  -0.215   1.847  1.00 20.00    +0.064 H 
ATOM     63 H63  LIG A   1      -7.129   1.576   2.573  1.00 20.00    +0.063 H 
ATOM     64 H64  LIG A   1      -2.456   2.552   1.655  1.00 20.00    +0.070 H 
ATOM     65 H65  LIG A   1      -2.125   0.000  -1.988  1.00 20.00    +0.063 H 
ATOM     66 H66  LIG A   1       0.119  -0.294  -2.900  1.00 20.00    +0.064 H 
ATOM     67 H67  LIG A   1       2.401   0.170  -2.688  1.00 20.00    +0.160 HD
ATOM     68 H68  LIG A   1       4.348   0.771  -1.881  1.00 20.00    +0.049 H 
ATOM     69 H69  LIG A   1       3.495   1.483  -0.527  1.00 20.00    +0.049 H 
ATOM     70 H70  LIG A   1       4.496  -1.425  -0.777  1.00 20.00    +0.030 H 
ATOM     71 H71  LIG A   1       3.519  -0.872   0.568  1.00 20.00    +0.030 H 
ATOM     72 H72  LIG A   1       5.818  -0.852   1.255  1.00 20.00    +0.043 H 
ATOM     73 H73  LIG A   1       5.239   0.818   1.177  1.00 20.00    +0.043 H 
ATOM     74 H74  LIG A   1       6.847  -0.558  -0.888  1.00 20.00    +0.122 HD
ATOM     75 H75  LIG A   1       8.365   1.299  -0.486  1.00 20.00    +0.043 H 
ATOM     76 H76  LIG A   1       7.465   1.653   0.977  1.00 20.00    +0.043 H 
ATOM     77 H77  LIG A   1       7.990  -0.700   1.807  1.00 20.00    +0.028 H 
ATOM     78 H78  LIG A   1       8.921  -0.990   0.341  1.00 20.00    +0.028 H 
ATOM     79 H79  LIG A   1      10.286  -0.401   2.348  1.00 20.00    +0.028 H 
ATOM     80 H80  LIG A   1       9.505   1.174   2.435  1.00 20.00    +0.028 H 
ATOM     81 H81  LIG A   1      10.459   1.788   0.201  1.00 20.00    +0.043 H 
ATOM     82 H82  LIG A   1      11.164   0.176   0.046  1.00 20.00    +0.043 H 
ATOM     83 H83  LIG A   1      11.788   2.109   2.173  1.00 20.00    +0.118 HD
ATOM     84 H84  LIG A   1      12.459   0.634   2.010  1.00 20.00    +0.118 HD
ATOM     85 H85  LIG A   1       1.813   0.826   0.892  1.00 20.00    +0.064 H 
ATOM     86 H86  LIG A   1      -0.410   1.107   1.812  1.00 20.00    +0.063 H 
ATOM     87 H87  LIG A   1      -5.503  -1.930  -0.542  1.00 20.00    +0.068 H 
ENDROOT
TORSDOF 0
