ROOT
ATOM      1 C1   LIG A   1      -7.373   1.308   2.194  1.00 20.00    -0.060 C 
ATOM      2 C2   LIG A   1      -6.258   0.864   3.102  1.00 20.00    -0.016 C 
ATOM      3 C3   LIG A   1      -6.200  -0.677   3.272  1.00 20.00    -0.023 C 
ATOM      4 C4   LIG A   1      -5.972  -1.211   1.879  1.00 20.00    -0.044 A 
ATOM      5 C5   LIG A   1      -7.094  -1.091   1.085  1.00 20.00    -0.058 A 
ATOM      6 C6   LIG A   1      -6.877  -1.195  -0.264  1.00 20.00    -0.054 A 
ATOM      7 C7   LIG A   1      -5.590  -1.406  -0.683  1.00 20.00    +0.009 A 
ATOM      8 C8   LIG A   1      -4.446  -1.548   0.077  1.00 20.00    +0.130 A 
ATOM      9 C9   LIG A   1      -4.695  -1.438   1.471  1.00 20.00    -0.016 A 
ATOM     10 O10  LIG A   1      -3.282  -1.764  -0.490  1.00 20.00    -0.464 OA
ATOM     11 C11  LIG A   1      -2.054  -1.321  -0.518  1.00 20.00    +0.104 C 
ATOM     12 C12  LIG A   1      -1.487  -0.144  -0.297  1.00 20.00    +0.082 C 
ATOM     13 C13  LIG A   1      -0.015  -0.020  -0.432  1.00 20.00    -0.010 A 
ATOM     14 C14  LIG A   1       0.797  -1.137  -0.424  1.00 20.00    -0.052 A 
ATOM     15 C15  LIG A   1       2.178  -1.051  -0.628  1.00 20.00    -0.038 A 
ATOM     16 C16  LIG A   1       2.796   0.159  -0.846  1.00 20.00    +0.034 A 
ATOM     17 N17  LIG A   1       4.208   0.238  -1.056  1.00 20.00    -0.385 NA
ATOM     18 C18  LIG A   1       4.764   1.540  -1.286  1.00 20.00    +0.016 C 
ATOM     19 C19  LIG A   1       6.233   1.628  -1.453  1.00 20.00    -0.023 C 
ATOM     20 C20  LIG A   1       7.086   1.209  -0.314  1.00 20.00    -0.003 C 
ATOM     21 N21  LIG A   1       7.013  -0.114   0.147  1.00 20.00    -0.317 NA
ATOM     22 C22  LIG A   1       7.492  -1.164  -0.656  1.00 20.00    -0.005 C 
ATOM     23 C23  LIG A   1       8.948  -1.263  -0.908  1.00 20.00    -0.039 C 
ATOM     24 C24  LIG A   1       9.765  -1.473   0.302  1.00 20.00    -0.040 C 
ATOM     25 C25  LIG A   1       9.632  -0.355   1.288  1.00 20.00    -0.008 C 
ATOM     26 N26  LIG A   1      10.536  -0.664   2.424  1.00 20.00    -0.330 NA
ATOM     27 C27  LIG A   1       1.997   1.275  -0.855  1.00 20.00    -0.038 A 
ATOM     28 C28  LIG A   1       0.608   1.187  -0.651  1.00 20.00    -0.052 A 
ATOM     29 C29  LIG A   1      -2.172   1.053   0.167  1.00 20.00    +0.264 C 
ATOM     30 O30  LIG A   1      -1.593   2.172   0.412  1.00 20.00    -0.268 OA
ATOM     31 N31  LIG A   1      -3.583   1.267   0.457  1.00 20.00    -0.277 NA
ATOM     32 C32  LIG A   1      -4.421   1.784  -0.546  1.00 20.00    +0.029 C 
ATOM     33 C33  LIG A   1      -4.572   1.230  -1.864  1.00 20.00    -0.034 C 
ATOM     34 C34  LIG A   1      -4.529  -0.084  -2.436  1.00 20.00    -0.034 C 
ATOM     35 C35  LIG A   1      -5.427  -1.209  -2.174  1.00 20.00    +0.085 C 
ATOM     36 C36  LIG A   1      -4.906  -2.510  -2.673  1.00 20.00    +0.311 C 
ATOM     37 O37  LIG A   1      -4.685  -3.496  -1.915  1.00 20.00    -0.252 OA
ATOM     38 O38  LIG A   1      -4.634  -2.701  -4.024  1.00 20.00    -0.481 OA
ATOM     39 C39  LIG A   1      -4.018   1.276   1.811  1.00 20.00    +0.246 C 
ATOM     40 O40  LIG A   1      -2.881   0.928   2.474  1.00 20.00    -0.273 OA
ATOM     41 C41  LIG A   1      -4.999   1.476   2.775  1.00 20.00    +0.088 C 
ATOM     42 N42  LIG A   1      -4.236   1.407   4.109  1.00 20.00    -0.320 NA
ATOM     43 C43  LIG A   1      -1.808   0.349  -0.057  1.00 20.00    +0.000 C 
ATOM     44 C44  LIG A   1      -0.806  -0.762   0.158  1.00 20.00    +0.000 C 
ATOM     45 Se45 LIG A   1       0.797  -0.090   1.019  1.00 20.00    +0.000 Se
ATOM     46 C46  LIG A   1       2.215   0.275  -0.226  1.00 20.00    +0.000 C 
ATOM     47 H47  LIG A   1      -7.393   2.454   2.374  1.00 20.00    +0.023 H 
ATOM     48 H48  LIG A   1      -7.214   1.262   1.135  1.00 20.00    +0.023 H 
ATOM     49 H49  LIG A   1      -8.377   1.041   2.582  1.00 20.00    +0.023 H 
ATOM     50 H50  LIG A   1      -6.593   1.185   4.106  1.00 20.00    +0.032 H 
ATOM     51 H51  LIG A   1      -5.329  -0.896   3.857  1.00 20.00    +0.032 H 
ATOM     52 H52  LIG A   1      -7.099  -1.118   3.651  1.00 20.00    +0.032 H 
ATOM     53 H53  LIG A   1      -8.085  -0.942   1.429  1.00 20.00    +0.063 H 
ATOM     54 H54  LIG A   1      -7.723  -1.109  -0.953  1.00 20.00    +0.063 H 
ATOM     55 H55  LIG A   1      -3.902  -1.548   2.187  1.00 20.00    +0.067 H 
ATOM     56 H56  LIG A   1      -1.284  -2.109  -0.797  1.00 20.00    +0.105 H 
ATOM     57 H57  LIG A   1       0.445  -2.140  -0.245  1.00 20.00    +0.063 H 
ATOM     58 H58  LIG A   1       2.800  -1.926  -0.620  1.00 20.00    +0.064 H 
ATOM     59 H59  LIG A   1       4.722  -0.654  -1.035  1.00 20.00    +0.160 HD
ATOM     60 H60  LIG A   1       4.213   1.941  -2.190  1.00 20.00    +0.049 H 
ATOM     61 H61  LIG A   1       4.476   2.257  -0.481  1.00 20.00    +0.049 H 
ATOM     62 H62  LIG A   1       6.481   2.718  -1.641  1.00 20.00    +0.030 H 
ATOM     63 H63  LIG A   1       6.561   1.027  -2.341  1.00 20.00    +0.030 H 
ATOM     64 H64  LIG A   1       6.866   1.884   0.554  1.00 20.00    +0.043 H 
ATOM     65 H65  LIG A   1       8.142   1.482  -0.591  1.00 20.00    +0.043 H 
ATOM     66 H66  LIG A   1       6.241  -0.355   0.742  1.00 20.00    +0.122 HD
ATOM     67 H67  LIG A   1       7.194  -2.128  -0.143  1.00 20.00    +0.043 H 
ATOM     68 H68  LIG A   1       6.985  -1.239  -1.654  1.00 20.00    +0.043 H 
ATOM     69 H69  LIG A   1       9.332  -0.435  -1.563  1.00 20.00    +0.028 H 
ATOM     70 H70  LIG A   1       9.099  -2.186  -1.559  1.00 20.00    +0.028 H 
ATOM     71 H71  LIG A   1      10.831  -1.569  -0.021  1.00 20.00    +0.028 H 
ATOM     72 H72  LIG A   1       9.433  -2.458   0.751  1.00 20.00    +0.028 H 
ATOM     73 H73  LIG A   1       9.914   0.592   0.793  1.00 20.00    +0.043 H 
ATOM     74 H74  LIG A   1       8.590  -0.343   1.710  1.00 20.00    +0.043 H 
ATOM     75 H75  LIG A   1      10.765   0.219   2.949  1.00 20.00    +0.118 HD
ATOM     76 H76  LIG A   1      11.396  -1.058   1.947  1.00 20.00    +0.118 HD
ATOM     77 H77  LIG A   1       2.478   2.227  -1.025  1.00 20.00    +0.064 H 
ATOM     78 H78  LIG A   1       0.107   2.135  -0.714  1.00 20.00    +0.063 H 
ATOM     79 H79  LIG A   1      -5.463   2.000  -0.154  1.00 20.00    +0.050 H 
ATOM     80 H80  LIG A   1      -4.062   2.878  -0.691  1.00 20.00    +0.050 H 
ATOM     81 H81  LIG A   1      -3.802   1.842  -2.522  1.00 20.00    +0.029 H 
ATOM     82 H82  LIG A   1      -5.539   1.717  -2.238  1.00 20.00    +0.029 H 
ATOM     83 H83  LIG A   1      -4.747   0.131  -3.587  1.00 20.00    +0.028 H 
ATOM     84 H84  LIG A   1      -3.452  -0.377  -2.593  1.00 20.00    +0.028 H 
ATOM     85 H85  LIG A   1      -6.384  -1.032  -2.694  1.00 20.00    +0.047 H 
ATOM     86 H86  LIG A   1      -4.184  -3.545  -4.365  1.00 20.00    +0.296 HD
ATOM     87 H87  LIG A   1      -5.185   2.630   2.821  1.00 20.00    +0.057 H 
ATOM     88 H88  LIG A   1      -3.820   0.453   4.085  1.00 20.00    +0.119 HD
ATOM     89 H89  LIG A   1      -3.488   2.129   4.080  1.00 20.00    +0.119 HD
ATOM     90 H90  LIG A   1      -2.798   0.137   0.393  1.00 20.00    +0.000 H 
ATOM     91 H91  LIG A   1      -1.950   0.487  -1.137  1.00 20.00    +0.000 H 
ATOM     92 H92  LIG A   1      -1.435   1.258   0.454  1.00 20.00    +0.000 H 
ATOM     93 H93  LIG A   1      -1.298  -1.496   0.849  1.00 20.00    +0.000 H 
ATOM     94 H94  LIG A   1      -0.514  -1.258  -0.798  1.00 20.00    +0.000 H 
ATOM     95 H95  LIG A   1       2.364   1.381  -0.271  1.00 20.00    +0.000 H 
ATOM     96 H96  LIG A   1       2.046  -0.122  -1.237  1.00 20.00    +0.000 H 
ATOM     97 H97  LIG A   1       3.188  -0.160   0.119  1.00 20.00    +0.000 H 
ENDROOT
TORSDOF 0
