ROOT
ATOM      1 N1   LIG A   1     -10.738   1.232   0.611  1.00 20.00    -0.289 NA
ATOM      2 C2   LIG A   1     -11.170   0.013   0.606  1.00 20.00    +0.092 C 
ATOM      3 N3   LIG A   1     -12.446  -0.223   1.011  1.00 20.00    -0.388 NA
ATOM      4 C4   LIG A   1     -10.286  -1.141   0.179  1.00 20.00    +0.022 C 
ATOM      5 C5   LIG A   1      -9.732  -0.934  -1.229  1.00 20.00    +0.022 C 
ATOM      6 N6   LIG A   1      -8.708   0.114  -1.257  1.00 20.00    -0.384 NA
ATOM      7 C7   LIG A   1      -7.353  -0.172  -1.084  1.00 20.00    +0.038 A 
ATOM      8 C8   LIG A   1      -6.871  -1.353  -0.506  1.00 20.00    -0.038 A 
ATOM      9 C9   LIG A   1      -5.501  -1.551  -0.292  1.00 20.00    -0.045 A 
ATOM     10 C10  LIG A   1      -4.593  -0.549  -0.631  1.00 20.00    +0.065 A 
ATOM     11 C11  LIG A   1      -3.147  -0.732  -0.414  1.00 20.00    +0.200 C 
ATOM     12 O12  LIG A   1      -2.716  -1.778   0.059  1.00 20.00    -0.288 OA
ATOM     13 C13  LIG A   1      -2.266   0.407  -0.803  1.00 20.00    +0.065 C 
ATOM     14 C14  LIG A   1      -0.803   0.371  -0.626  1.00 20.00    -0.011 A 
ATOM     15 C15  LIG A   1       0.063   0.727  -1.666  1.00 20.00    -0.052 A 
ATOM     16 C16  LIG A   1       1.451   0.698  -1.480  1.00 20.00    -0.038 A 
ATOM     17 C17  LIG A   1       2.020   0.285  -0.268  1.00 20.00    +0.034 A 
ATOM     18 N18  LIG A   1       3.412   0.346  -0.133  1.00 20.00    -0.385 NA
ATOM     19 C19  LIG A   1       4.061  -0.356   0.970  1.00 20.00    +0.016 C 
ATOM     20 C20  LIG A   1       5.582  -0.226   0.866  1.00 20.00    -0.023 C 
ATOM     21 C21  LIG A   1       6.057   1.209   1.119  1.00 20.00    -0.003 C 
ATOM     22 N22  LIG A   1       7.518   1.342   1.154  1.00 20.00    -0.317 NA
ATOM     23 C23  LIG A   1       8.126   1.227  -0.171  1.00 20.00    -0.005 C 
ATOM     24 C24  LIG A   1       9.617   1.574  -0.132  1.00 20.00    -0.039 C 
ATOM     25 C25  LIG A   1      10.495   0.811   0.871  1.00 20.00    -0.040 C 
ATOM     26 C26  LIG A   1      10.408  -0.714   0.792  1.00 20.00    -0.008 C 
ATOM     27 N27  LIG A   1       9.265  -1.238   1.538  1.00 20.00    -0.330 NA
ATOM     28 C28  LIG A   1       1.148  -0.036   0.776  1.00 20.00    -0.038 A 
ATOM     29 C29  LIG A   1      -0.242  -0.011   0.597  1.00 20.00    -0.052 A 
ATOM     30 C30  LIG A   1      -2.869   1.499  -1.299  1.00 20.00    +0.103 C 
ATOM     31 O31  LIG A   1      -4.215   1.677  -1.506  1.00 20.00    -0.463 OA
ATOM     32 C32  LIG A   1      -5.053   0.645  -1.169  1.00 20.00    +0.139 A 
ATOM     33 C33  LIG A   1      -6.421   0.835  -1.382  1.00 20.00    +0.005 A 
ATOM     34 O34  LIG A   1       3.409   1.103  -0.371  1.00 20.00    -0.251 OA
ATOM     35 C35  LIG A   1       2.295   1.028   0.123  1.00 20.00    +0.317 C 
ATOM     36 O36  LIG A   1       1.745   2.106   0.729  1.00 20.00    -0.480 OA
ATOM     37 C37  LIG A   1       1.437  -0.227   0.223  1.00 20.00    +0.094 C 
ATOM     38 N38  LIG A   1       0.003   0.115   0.163  1.00 20.00    -0.306 NA
ATOM     39 C39  LIG A   1      -0.830  -1.045   0.501  1.00 20.00    +0.005 C 
ATOM     40 C40  LIG A   1      -2.329  -0.722   0.420  1.00 20.00    +0.003 C 
ATOM     41 S41  LIG A   1      -2.844  -0.276  -1.267  1.00 20.00    -0.178 SA
ATOM     42 H42  LIG A   1      -9.755   1.230   0.284  1.00 20.00    +0.189 HD
ATOM     43 H43  LIG A   1     -12.992   0.632   1.073  1.00 20.00    +0.157 HD
ATOM     44 H44  LIG A   1     -12.943  -1.004   0.605  1.00 20.00    +0.157 HD
ATOM     45 H45  LIG A   1      -9.487  -1.242   0.921  1.00 20.00    +0.037 H 
ATOM     46 H46  LIG A   1     -10.879  -2.062   0.201  1.00 20.00    +0.037 H 
ATOM     47 H47  LIG A   1     -10.548  -0.625  -1.894  1.00 20.00    +0.049 H 
ATOM     48 H48  LIG A   1      -9.346  -1.874  -1.638  1.00 20.00    +0.049 H 
ATOM     49 H49  LIG A   1      -8.865   0.792  -2.003  1.00 20.00    +0.160 HD
ATOM     50 H50  LIG A   1      -7.546  -2.149  -0.207  1.00 20.00    +0.064 H 
ATOM     51 H51  LIG A   1      -5.152  -2.483   0.148  1.00 20.00    +0.063 H 
ATOM     52 H52  LIG A   1      -0.326   1.031  -2.635  1.00 20.00    +0.063 H 
ATOM     53 H53  LIG A   1       2.092   1.004  -2.304  1.00 20.00    +0.064 H 
ATOM     54 H54  LIG A   1       3.872   0.192  -1.028  1.00 20.00    +0.160 HD
ATOM     55 H55  LIG A   1       3.733   0.047   1.935  1.00 20.00    +0.049 H 
ATOM     56 H56  LIG A   1       3.799  -1.420   0.934  1.00 20.00    +0.049 H 
ATOM     57 H57  LIG A   1       5.912  -0.573  -0.121  1.00 20.00    +0.030 H 
ATOM     58 H58  LIG A   1       6.035  -0.894   1.610  1.00 20.00    +0.030 H 
ATOM     59 H59  LIG A   1       5.682   1.535   2.097  1.00 20.00    +0.043 H 
ATOM     60 H60  LIG A   1       5.633   1.901   0.383  1.00 20.00    +0.043 H 
ATOM     61 H61  LIG A   1       7.907   0.580   1.721  1.00 20.00    +0.122 HD
ATOM     62 H62  LIG A   1       7.998   0.217  -0.576  1.00 20.00    +0.043 H 
ATOM     63 H63  LIG A   1       7.639   1.919  -0.868  1.00 20.00    +0.043 H 
ATOM     64 H64  LIG A   1      10.025   1.417  -1.139  1.00 20.00    +0.028 H 
ATOM     65 H65  LIG A   1       9.726   2.647   0.073  1.00 20.00    +0.028 H 
ATOM     66 H66  LIG A   1      10.282   1.152   1.892  1.00 20.00    +0.028 H 
ATOM     67 H67  LIG A   1      11.536   1.101   0.676  1.00 20.00    +0.028 H 
ATOM     68 H68  LIG A   1      10.351  -1.040  -0.252  1.00 20.00    +0.043 H 
ATOM     69 H69  LIG A   1      11.320  -1.147   1.219  1.00 20.00    +0.043 H 
ATOM     70 H70  LIG A   1       9.411  -1.055   2.532  1.00 20.00    +0.118 HD
ATOM     71 H71  LIG A   1       9.252  -2.254   1.447  1.00 20.00    +0.118 HD
ATOM     72 H72  LIG A   1       1.524  -0.320   1.754  1.00 20.00    +0.064 H 
ATOM     73 H73  LIG A   1      -0.881  -0.291   1.433  1.00 20.00    +0.063 H 
ATOM     74 H74  LIG A   1      -2.341   2.399  -1.592  1.00 20.00    +0.105 H 
ATOM     75 H75  LIG A   1      -6.759   1.788  -1.783  1.00 20.00    +0.068 H 
ATOM     76 H76  LIG A   1       2.405   2.815   0.578  1.00 20.00    +0.296 HD
ATOM     77 H77  LIG A   1       1.692  -0.881  -0.617  1.00 20.00    +0.055 H 
ATOM     78 H78  LIG A   1       1.692  -0.719   1.167  1.00 20.00    +0.055 H 
ATOM     79 H79  LIG A   1      -0.166   0.881   0.821  1.00 20.00    +0.123 HD
ATOM     80 H80  LIG A   1      -0.600  -1.883  -0.167  1.00 20.00    +0.044 H 
ATOM     81 H81  LIG A   1      -0.605  -1.370   1.524  1.00 20.00    +0.044 H 
ATOM     82 H82  LIG A   1      -2.915  -1.590   0.739  1.00 20.00    +0.039 H 
ATOM     83 H83  LIG A   1      -2.576   0.110   1.088  1.00 20.00    +0.039 H 
ATOM     84 H84  LIG A   1      -1.813   0.555  -1.495  1.00 20.00    +0.102 HD
ENDROOT
TORSDOF 0
