ROOT
ATOM      1 N1   LIG A   1      -7.492  -0.907  -3.106  1.00 20.00    -0.289 NA
ATOM      2 C2   LIG A   1      -8.517  -0.551  -2.407  1.00 20.00    +0.092 C 
ATOM      3 N3   LIG A   1      -8.777   0.762  -2.153  1.00 20.00    -0.388 NA
ATOM      4 C4   LIG A   1      -9.444  -1.627  -1.879  1.00 20.00    +0.022 C 
ATOM      5 C5   LIG A   1      -9.416  -1.761  -0.358  1.00 20.00    +0.022 C 
ATOM      6 N6   LIG A   1      -8.100  -2.172   0.145  1.00 20.00    -0.384 NA
ATOM      7 C7   LIG A   1      -7.223  -1.164   0.572  1.00 20.00    +0.038 A 
ATOM      8 C8   LIG A   1      -7.620  -0.161   1.468  1.00 20.00    -0.038 A 
ATOM      9 C9   LIG A   1      -6.723   0.826   1.887  1.00 20.00    -0.045 A 
ATOM     10 C10  LIG A   1      -5.408   0.801   1.424  1.00 20.00    +0.065 A 
ATOM     11 C11  LIG A   1      -4.442   1.830   1.834  1.00 20.00    +0.193 C 
ATOM     12 O12  LIG A   1      -4.747   2.760   2.568  1.00 20.00    -0.289 OA
ATOM     13 C13  LIG A   1      -3.074   1.694   1.307  1.00 20.00    +0.030 C 
ATOM     14 C14  LIG A   1      -2.782   0.667   0.494  1.00 20.00    +0.138 C 
ATOM     15 C15  LIG A   1      -1.430   0.481  -0.070  1.00 20.00    +0.017 A 
ATOM     16 C16  LIG A   1      -1.269   0.025  -1.382  1.00 20.00    -0.049 A 
ATOM     17 C17  LIG A   1       0.009  -0.170  -1.923  1.00 20.00    -0.038 A 
ATOM     18 C18  LIG A   1       1.168   0.100  -1.184  1.00 20.00    +0.034 A 
ATOM     19 N19  LIG A   1       2.405  -0.184  -1.763  1.00 20.00    -0.385 NA
ATOM     20 C20  LIG A   1       3.652   0.322  -1.192  1.00 20.00    +0.016 C 
ATOM     21 C21  LIG A   1       4.261  -0.714  -0.245  1.00 20.00    -0.023 C 
ATOM     22 C22  LIG A   1       5.478  -0.176   0.510  1.00 20.00    -0.003 C 
ATOM     23 N23  LIG A   1       6.563   0.167  -0.408  1.00 20.00    -0.317 NA
ATOM     24 C24  LIG A   1       7.697   0.812   0.257  1.00 20.00    -0.005 C 
ATOM     25 C25  LIG A   1       8.559  -0.163   1.066  1.00 20.00    -0.039 C 
ATOM     26 C26  LIG A   1       9.735   0.520   1.774  1.00 20.00    -0.040 C 
ATOM     27 C27  LIG A   1      10.792   1.057   0.809  1.00 20.00    -0.008 C 
ATOM     28 N28  LIG A   1      11.923   1.620   1.538  1.00 20.00    -0.330 NA
ATOM     29 C29  LIG A   1       1.000   0.509   0.141  1.00 20.00    -0.038 A 
ATOM     30 C30  LIG A   1      -0.276   0.707   0.690  1.00 20.00    -0.049 A 
ATOM     31 O31  LIG A   1      -3.702  -0.289   0.089  1.00 20.00    -0.456 OA
ATOM     32 C32  LIG A   1      -4.986  -0.206   0.565  1.00 20.00    +0.140 A 
ATOM     33 C33  LIG A   1      -5.886  -1.188   0.149  1.00 20.00    +0.005 A 
ATOM     34 N34  LIG A   1       3.204   1.321   0.218  1.00 20.00    -0.287 NA
ATOM     35 C35  LIG A   1       3.388   0.038   0.212  1.00 20.00    +0.110 C 
ATOM     36 N36  LIG A   1       4.601  -0.440  -0.180  1.00 20.00    -0.386 NA
ATOM     37 C37  LIG A   1       2.283  -0.922   0.649  1.00 20.00    +0.075 C 
ATOM     38 N38  LIG A   1       1.029  -0.472   0.090  1.00 20.00    -0.348 NA
ATOM     39 C39  LIG A   1      -0.176  -0.969   0.540  1.00 20.00    +0.237 C 
ATOM     40 O40  LIG A   1      -0.272  -1.709   1.513  1.00 20.00    -0.273 OA
ATOM     41 C41  LIG A   1      -1.370  -0.556  -0.339  1.00 20.00    +0.087 C 
ATOM     42 C42  LIG A   1      -2.701  -0.511   0.406  1.00 20.00    -0.027 C 
ATOM     43 C43  LIG A   1      -3.309   0.837   0.047  1.00 20.00    -0.039 C 
ATOM     44 C44  LIG A   1      -2.532   1.283  -1.175  1.00 20.00    -0.004 C 
ATOM     45 N45  LIG A   1      -1.169   0.807  -0.908  1.00 20.00    -0.306 NA
ATOM     46 H46  LIG A   1      -6.986  -0.076  -3.418  1.00 20.00    +0.189 HD
ATOM     47 H47  LIG A   1      -7.980   1.386  -2.202  1.00 20.00    +0.157 HD
ATOM     48 H48  LIG A   1      -9.364   0.966  -1.351  1.00 20.00    +0.157 HD
ATOM     49 H49  LIG A   1      -9.178  -2.583  -2.345  1.00 20.00    +0.037 H 
ATOM     50 H50  LIG A   1     -10.462  -1.379  -2.204  1.00 20.00    +0.037 H 
ATOM     51 H51  LIG A   1      -9.783  -0.842   0.113  1.00 20.00    +0.049 H 
ATOM     52 H52  LIG A   1     -10.127  -2.547  -0.076  1.00 20.00    +0.049 H 
ATOM     53 H53  LIG A   1      -7.642  -2.801  -0.516  1.00 20.00    +0.160 HD
ATOM     54 H54  LIG A   1      -8.627  -0.154   1.875  1.00 20.00    +0.064 H 
ATOM     55 H55  LIG A   1      -7.048   1.598   2.581  1.00 20.00    +0.063 H 
ATOM     56 H56  LIG A   1      -2.365   2.455   1.603  1.00 20.00    +0.070 H 
ATOM     57 H57  LIG A   1      -2.136  -0.192  -2.003  1.00 20.00    +0.063 H 
ATOM     58 H58  LIG A   1       0.090  -0.547  -2.940  1.00 20.00    +0.064 H 
ATOM     59 H59  LIG A   1       2.380  -0.105  -2.777  1.00 20.00    +0.160 HD
ATOM     60 H60  LIG A   1       4.348   0.500  -2.021  1.00 20.00    +0.049 H 
ATOM     61 H61  LIG A   1       3.509   1.293  -0.702  1.00 20.00    +0.049 H 
ATOM     62 H62  LIG A   1       4.536  -1.615  -0.811  1.00 20.00    +0.030 H 
ATOM     63 H63  LIG A   1       3.517  -1.037   0.493  1.00 20.00    +0.030 H 
ATOM     64 H64  LIG A   1       5.806  -0.943   1.221  1.00 20.00    +0.043 H 
ATOM     65 H65  LIG A   1       5.176   0.706   1.088  1.00 20.00    +0.043 H 
ATOM     66 H66  LIG A   1       6.880  -0.671  -0.897  1.00 20.00    +0.122 HD
ATOM     67 H67  LIG A   1       8.307   1.263  -0.532  1.00 20.00    +0.043 H 
ATOM     68 H68  LIG A   1       7.351   1.639   0.888  1.00 20.00    +0.043 H 
ATOM     69 H69  LIG A   1       7.948  -0.648   1.836  1.00 20.00    +0.028 H 
ATOM     70 H70  LIG A   1       8.937  -0.960   0.413  1.00 20.00    +0.028 H 
ATOM     71 H71  LIG A   1      10.199  -0.215   2.445  1.00 20.00    +0.028 H 
ATOM     72 H72  LIG A   1       9.357   1.331   2.409  1.00 20.00    +0.028 H 
ATOM     73 H73  LIG A   1      10.374   1.839   0.168  1.00 20.00    +0.043 H 
ATOM     74 H74  LIG A   1      11.153   0.255   0.157  1.00 20.00    +0.043 H 
ATOM     75 H75  LIG A   1      11.599   2.365   2.155  1.00 20.00    +0.118 HD
ATOM     76 H76  LIG A   1      12.329   0.910   2.147  1.00 20.00    +0.118 HD
ATOM     77 H77  LIG A   1       1.857   0.679   0.785  1.00 20.00    +0.064 H 
ATOM     78 H78  LIG A   1      -0.345   1.017   1.730  1.00 20.00    +0.063 H 
ATOM     79 H79  LIG A   1      -5.541  -1.965  -0.529  1.00 20.00    +0.068 H 
ATOM     80 H80  LIG A   1       2.245   1.512   0.539  1.00 20.00    +0.189 HD
ATOM     81 H81  LIG A   1       5.304   0.293  -0.211  1.00 20.00    +0.157 HD
ATOM     82 H82  LIG A   1       4.926  -1.295   0.256  1.00 20.00    +0.157 HD
ATOM     83 H83  LIG A   1       2.487  -1.934   0.286  1.00 20.00    +0.058 H 
ATOM     84 H84  LIG A   1       2.223  -0.932   1.742  1.00 20.00    +0.058 H 
ATOM     85 H85  LIG A   1       1.023  -0.030  -0.828  1.00 20.00    +0.163 HD
ATOM     86 H86  LIG A   1      -1.425  -1.278  -1.164  1.00 20.00    +0.057 H 
ATOM     87 H87  LIG A   1      -3.352  -1.320   0.053  1.00 20.00    +0.029 H 
ATOM     88 H88  LIG A   1      -2.606  -0.609   1.492  1.00 20.00    +0.029 H 
ATOM     89 H89  LIG A   1      -3.156   1.543   0.873  1.00 20.00    +0.028 H 
ATOM     90 H90  LIG A   1      -4.384   0.769  -0.144  1.00 20.00    +0.028 H 
ATOM     91 H91  LIG A   1      -2.921   0.814  -2.086  1.00 20.00    +0.043 H 
ATOM     92 H92  LIG A   1      -2.560   2.368  -1.309  1.00 20.00    +0.043 H 
ATOM     93 H93  LIG A   1      -0.781   1.394  -0.165  1.00 20.00    +0.123 HD
ENDROOT
TORSDOF 0
