MODEL 1
REMARK VINA RESULT:   -11.182      0.000      0.000
REMARK INTER + INTRA:         -11.182
REMARK INTER:                 -11.182
REMARK INTRA:                   0.000
REMARK UNBOUND:                 0.000
ROOT
ATOM      1 C1   LIG A   1      17.397  13.208  10.537  1.00 20.00    -0.060 C 
ATOM      2 C2   LIG A   1      18.380  14.328  10.147  1.00 20.00    -0.016 C 
ATOM      3 C3   LIG A   1      19.836  13.749  10.181  1.00 20.00    -0.023 C 
ATOM      4 C4   LIG A   1      20.470  13.556   8.828  1.00 20.00    -0.044 A 
ATOM      5 C5   LIG A   1      20.020  12.563   7.956  1.00 20.00    -0.058 A 
ATOM      6 C6   LIG A   1      20.297  12.663   6.594  1.00 20.00    -0.054 A 
ATOM      7 C7   LIG A   1      20.992  13.778   6.087  1.00 20.00    +0.009 A 
ATOM      8 C8   LIG A   1      21.572  14.682   6.995  1.00 20.00    +0.130 A 
ATOM      9 C9   LIG A   1      21.370  14.523   8.367  1.00 20.00    -0.016 A 
ATOM     10 O10  LIG A   1      22.237  15.779   6.490  1.00 20.00    -0.464 OA
ATOM     11 C11  LIG A   1      22.149  16.980   7.162  1.00 20.00    +0.104 C 
ATOM     12 C12  LIG A   1      21.094  17.818   7.254  1.00 20.00    +0.082 C 
ATOM     13 C13  LIG A   1      21.305  19.131   7.902  1.00 20.00    -0.010 A 
ATOM     14 C14  LIG A   1      21.711  19.208   9.238  1.00 20.00    -0.052 A 
ATOM     15 C15  LIG A   1      21.921  20.450   9.850  1.00 20.00    -0.038 A 
ATOM     16 C16  LIG A   1      21.751  21.650   9.147  1.00 20.00    +0.034 A 
ATOM     17 N17  LIG A   1      21.906  22.850   9.848  1.00 20.00    -0.385 NA
ATOM     18 C18  LIG A   1      21.939  24.123   9.133  1.00 20.00    +0.016 C 
ATOM     19 C19  LIG A   1      22.083  25.288  10.119  1.00 20.00    -0.023 C 
ATOM     20 C20  LIG A   1      20.826  25.547  10.963  1.00 20.00    -0.003 C 
ATOM     21 N21  LIG A   1      20.441  24.452  11.857  1.00 20.00    -0.317 NA
ATOM     22 C22  LIG A   1      21.275  24.321  13.052  1.00 20.00    -0.005 C 
ATOM     23 C23  LIG A   1      21.018  25.380  14.131  1.00 20.00    -0.039 C 
ATOM     24 C24  LIG A   1      19.702  25.227  14.904  1.00 20.00    -0.040 C 
ATOM     25 C25  LIG A   1      18.442  25.388  14.056  1.00 20.00    -0.008 C 
ATOM     26 N26  LIG A   1      17.264  25.449  14.922  1.00 20.00    -0.330 NA
ATOM     27 C27  LIG A   1      21.302  21.565   7.826  1.00 20.00    -0.038 A 
ATOM     28 C28  LIG A   1      21.097  20.324   7.205  1.00 20.00    -0.052 A 
ATOM     29 C29  LIG A   1      19.783  17.505   6.585  1.00 20.00    +0.264 C 
ATOM     30 O30  LIG A   1      19.338  18.252   5.713  1.00 20.00    -0.268 OA
ATOM     31 N31  LIG A   1      19.133  16.343   6.984  1.00 20.00    -0.277 NA
ATOM     32 C32  LIG A   1      18.365  15.631   5.956  1.00 20.00    +0.029 C 
ATOM     33 C33  LIG A   1      18.871  15.623   4.495  1.00 20.00    -0.034 C 
ATOM     34 C34  LIG A   1      20.356  15.374   4.169  1.00 20.00    -0.034 C 
ATOM     35 C35  LIG A   1      20.986  14.018   4.585  1.00 20.00    +0.085 C 
ATOM     36 C36  LIG A   1      22.379  13.850   3.981  1.00 20.00    +0.311 C 
ATOM     37 O37  LIG A   1      23.417  13.559   4.551  1.00 20.00    -0.252 OA
ATOM     38 O38  LIG A   1      22.385  13.990   2.636  1.00 20.00    -0.481 OA
ATOM     39 C39  LIG A   1      18.867  16.174   8.356  1.00 20.00    +0.246 C 
ATOM     40 O40  LIG A   1      19.319  16.926   9.229  1.00 20.00    -0.273 OA
ATOM     41 C41  LIG A   1      17.922  15.018   8.813  1.00 20.00    +0.088 C 
ATOM     42 N42  LIG A   1      16.570  15.610   8.993  1.00 20.00    -0.320 NA
ATOM     43 O43  LIG A   1      20.655  22.274   9.911  1.00 20.00    -0.251 OA
ATOM     44 C44  LIG A   1      20.097  21.194   9.807  1.00 20.00    +0.317 C 
ATOM     45 O45  LIG A   1      18.749  21.132   9.695  1.00 20.00    -0.480 OA
ATOM     46 C46  LIG A   1      20.764  19.827   9.879  1.00 20.00    +0.094 C 
ATOM     47 N47  LIG A   1      20.029  18.841   9.062  1.00 20.00    -0.306 NA
ATOM     48 C48  LIG A   1      20.513  17.480   9.314  1.00 20.00    +0.005 C 
ATOM     49 C49  LIG A   1      19.781  16.440   8.453  1.00 20.00    +0.003 C 
ATOM     50 S50  LIG A   1      20.060  16.704   6.674  1.00 20.00    -0.178 SA
ATOM     51 H51  LIG A   1      16.378  13.587  10.662  1.00 20.00    +0.023 H 
ATOM     52 H52  LIG A   1      17.373  12.417   9.780  1.00 20.00    +0.023 H 
ATOM     53 H53  LIG A   1      17.686  12.755  11.493  1.00 20.00    +0.023 H 
ATOM     54 H54  LIG A   1      18.329  15.073  10.955  1.00 20.00    +0.032 H 
ATOM     55 H55  LIG A   1      20.458  14.437  10.771  1.00 20.00    +0.032 H 
ATOM     56 H56  LIG A   1      19.877  12.800  10.730  1.00 20.00    +0.032 H 
ATOM     57 H57  LIG A   1      19.369  11.768   8.311  1.00 20.00    +0.063 H 
ATOM     58 H58  LIG A   1      19.876  11.920   5.920  1.00 20.00    +0.063 H 
ATOM     59 H59  LIG A   1      21.771  15.255   9.064  1.00 20.00    +0.067 H 
ATOM     60 H60  LIG A   1      23.133  17.226   7.551  1.00 20.00    +0.105 H 
ATOM     61 H61  LIG A   1      21.836  18.303   9.829  1.00 20.00    +0.063 H 
ATOM     62 H62  LIG A   1      22.206  20.470  10.899  1.00 20.00    +0.064 H 
ATOM     63 H63  LIG A   1      22.636  22.769  10.553  1.00 20.00    +0.160 HD
ATOM     64 H64  LIG A   1      22.792  24.135   8.445  1.00 20.00    +0.049 H 
ATOM     65 H65  LIG A   1      21.023  24.269   8.549  1.00 20.00    +0.049 H 
ATOM     66 H66  LIG A   1      22.282  26.198   9.537  1.00 20.00    +0.030 H 
ATOM     67 H67  LIG A   1      22.957  25.136  10.763  1.00 20.00    +0.030 H 
ATOM     68 H68  LIG A   1      19.983  25.720  10.281  1.00 20.00    +0.043 H 
ATOM     69 H69  LIG A   1      20.945  26.482  11.519  1.00 20.00    +0.043 H 
ATOM     70 H70  LIG A   1      20.514  23.580  11.315  1.00 20.00    +0.122 HD
ATOM     71 H71  LIG A   1      21.083  23.334  13.489  1.00 20.00    +0.043 H 
ATOM     72 H72  LIG A   1      22.337  24.325  12.782  1.00 20.00    +0.043 H 
ATOM     73 H73  LIG A   1      21.086  26.391  13.715  1.00 20.00    +0.028 H 
ATOM     74 H74  LIG A   1      21.832  25.307  14.864  1.00 20.00    +0.028 H 
ATOM     75 H75  LIG A   1      19.702  25.981  15.701  1.00 20.00    +0.028 H 
ATOM     76 H76  LIG A   1      19.686  24.250  15.403  1.00 20.00    +0.028 H 
ATOM     77 H77  LIG A   1      18.495  26.300  13.452  1.00 20.00    +0.043 H 
ATOM     78 H78  LIG A   1      18.319  24.535  13.383  1.00 20.00    +0.043 H 
ATOM     79 H79  LIG A   1      16.433  25.558  14.341  1.00 20.00    +0.118 HD
ATOM     80 H80  LIG A   1      17.316  26.281  15.507  1.00 20.00    +0.118 HD
ATOM     81 H81  LIG A   1      21.102  22.456   7.241  1.00 20.00    +0.064 H 
ATOM     82 H82  LIG A   1      20.762  20.309   6.169  1.00 20.00    +0.063 H 
ATOM     83 H83  LIG A   1      18.265  14.585   6.241  1.00 20.00    +0.050 H 
ATOM     84 H84  LIG A   1      17.350  16.048   5.971  1.00 20.00    +0.050 H 
ATOM     85 H85  LIG A   1      18.598  16.583   4.036  1.00 20.00    +0.029 H 
ATOM     86 H86  LIG A   1      18.277  14.878   3.951  1.00 20.00    +0.029 H 
ATOM     87 H87  LIG A   1      20.426  15.448   3.074  1.00 20.00    +0.028 H 
ATOM     88 H88  LIG A   1      20.962  16.213   4.517  1.00 20.00    +0.028 H 
ATOM     89 H89  LIG A   1      20.381  13.227   4.121  1.00 20.00    +0.047 H 
ATOM     90 H90  LIG A   1      23.325  13.845   2.397  1.00 20.00    +0.296 HD
ATOM     91 H91  LIG A   1      17.824  14.240   8.061  1.00 20.00    +0.057 H 
ATOM     92 H92  LIG A   1      16.629  16.304   9.744  1.00 20.00    +0.119 HD
ATOM     93 H93  LIG A   1      16.310  16.144   8.163  1.00 20.00    +0.119 HD
ATOM     94 H94  LIG A   1      18.480  22.075   9.659  1.00 20.00    +0.296 HD
ATOM     95 H95  LIG A   1      21.785  19.927   9.495  1.00 20.00    +0.055 H 
ATOM     96 H96  LIG A   1      20.790  19.532  10.933  1.00 20.00    +0.055 H 
ATOM     97 H97  LIG A   1      19.035  18.918   9.295  1.00 20.00    +0.123 HD
ATOM     98 H98  LIG A   1      21.591  17.421   9.121  1.00 20.00    +0.044 H 
ATOM     99 H99  LIG A   1      20.355  17.224  10.368  1.00 20.00    +0.044 H 
ATOM    100 H100 LIG A   1      20.127  15.434   8.708  1.00 20.00    +0.039 H 
ATOM    101 H101 LIG A   1      18.703  16.480   8.643  1.00 20.00    +0.039 H 
ATOM    102 H102 LIG A   1      19.877  18.035   6.717  1.00 20.00    +0.102 HD
ENDROOT
TORSDOF 0
                                                                                                         
ENDMDL
MODEL 2
REMARK VINA RESULT:   -11.182      1.586      1.971
REMARK INTER + INTRA:         -11.182
REMARK INTER:                 -11.182
REMARK INTRA:                   0.000
REMARK UNBOUND:                 0.000
ROOT
ATOM      1 C1   LIG A   1      19.212  14.647  11.476  1.00 20.00    -0.060 C 
ATOM      2 C2   LIG A   1      19.903  15.885  10.871  1.00 20.00    -0.016 C 
ATOM      3 C3   LIG A   1      21.388  15.512  10.533  1.00 20.00    -0.023 C 
ATOM      4 C4   LIG A   1      21.686  15.382   9.062  1.00 20.00    -0.044 A 
ATOM      5 C5   LIG A   1      21.175  14.320   8.313  1.00 20.00    -0.058 A 
ATOM      6 C6   LIG A   1      21.088  14.431   6.927  1.00 20.00    -0.054 A 
ATOM      7 C7   LIG A   1      21.475  15.621   6.281  1.00 20.00    +0.009 A 
ATOM      8 C8   LIG A   1      22.132  16.613   7.031  1.00 20.00    +0.130 A 
ATOM      9 C9   LIG A   1      22.300  16.455   8.406  1.00 20.00    -0.016 A 
ATOM     10 O10  LIG A   1      22.492  17.781   6.393  1.00 20.00    -0.464 OA
ATOM     11 C11  LIG A   1      22.409  18.971   7.084  1.00 20.00    +0.104 C 
ATOM     12 C12  LIG A   1      21.304  19.658   7.449  1.00 20.00    +0.082 C 
ATOM     13 C13  LIG A   1      21.486  21.000   8.044  1.00 20.00    -0.010 A 
ATOM     14 C14  LIG A   1      22.197  21.158   9.238  1.00 20.00    -0.052 A 
ATOM     15 C15  LIG A   1      22.379  22.429   9.798  1.00 20.00    -0.038 A 
ATOM     16 C16  LIG A   1      21.875  23.580   9.179  1.00 20.00    +0.034 A 
ATOM     17 N17  LIG A   1      22.033  24.803   9.837  1.00 20.00    -0.385 NA
ATOM     18 C18  LIG A   1      21.711  26.054   9.157  1.00 20.00    +0.016 C 
ATOM     19 C19  LIG A   1      21.933  27.247  10.094  1.00 20.00    -0.023 C 
ATOM     20 C20  LIG A   1      20.902  27.347  11.228  1.00 20.00    -0.003 C 
ATOM     21 N21  LIG A   1      20.907  26.227  12.173  1.00 20.00    -0.317 NA
ATOM     22 C22  LIG A   1      22.020  26.236  13.120  1.00 20.00    -0.005 C 
ATOM     23 C23  LIG A   1      21.896  27.270  14.246  1.00 20.00    -0.039 C 
ATOM     24 C24  LIG A   1      20.848  26.952  15.319  1.00 20.00    -0.040 C 
ATOM     25 C25  LIG A   1      19.407  26.921  14.815  1.00 20.00    -0.008 C 
ATOM     26 N26  LIG A   1      18.484  26.836  15.947  1.00 20.00    -0.330 NA
ATOM     27 C27  LIG A   1      21.129  23.408   8.009  1.00 20.00    -0.038 A 
ATOM     28 C28  LIG A   1      20.949  22.140   7.440  1.00 20.00    -0.052 A 
ATOM     29 C29  LIG A   1      19.924  19.155   7.123  1.00 20.00    +0.264 C 
ATOM     30 O30  LIG A   1      19.178  19.816   6.400  1.00 20.00    -0.268 OA
ATOM     31 N31  LIG A   1      19.560  17.923   7.653  1.00 20.00    -0.277 NA
ATOM     32 C32  LIG A   1      18.667  17.091   6.837  1.00 20.00    +0.029 C 
ATOM     33 C33  LIG A   1      18.790  17.125   5.296  1.00 20.00    -0.034 C 
ATOM     34 C34  LIG A   1      20.168  17.076   4.607  1.00 20.00    -0.034 C 
ATOM     35 C35  LIG A   1      21.062  15.828   4.832  1.00 20.00    +0.085 C 
ATOM     36 C36  LIG A   1      22.271  15.842   3.897  1.00 20.00    +0.311 C 
ATOM     37 O37  LIG A   1      23.448  15.708   4.187  1.00 20.00    -0.252 OA
ATOM     38 O38  LIG A   1      21.923  15.955   2.596  1.00 20.00    -0.481 OA
ATOM     39 C39  LIG A   1      19.670  17.745   9.045  1.00 20.00    +0.246 C 
ATOM     40 O40  LIG A   1      20.217  18.569   9.789  1.00 20.00    -0.273 OA
ATOM     41 C41  LIG A   1      19.037  16.479   9.704  1.00 20.00    +0.088 C 
ATOM     42 N42  LIG A   1      17.704  16.882  10.224  1.00 20.00    -0.320 NA
ATOM     43 O43  LIG A   1      20.929  24.062  10.201  1.00 20.00    -0.251 OA
ATOM     44 C44  LIG A   1      20.517  22.913  10.223  1.00 20.00    +0.317 C 
ATOM     45 O45  LIG A   1      19.205  22.665  10.448  1.00 20.00    -0.480 OA
ATOM     46 C46  LIG A   1      21.363  21.653  10.105  1.00 20.00    +0.094 C 
ATOM     47 N47  LIG A   1      20.591  20.560   9.481  1.00 20.00    -0.306 NA
ATOM     48 C48  LIG A   1      21.306  19.284   9.583  1.00 20.00    +0.005 C 
ATOM     49 C49  LIG A   1      20.534  18.136   8.915  1.00 20.00    +0.003 C 
ATOM     50 S50  LIG A   1      20.323  18.401   7.127  1.00 20.00    -0.178 SA
ATOM     51 H51  LIG A   1      18.214  14.885  11.856  1.00 20.00    +0.023 H 
ATOM     52 H52  LIG A   1      19.110  13.847  10.737  1.00 20.00    +0.023 H 
ATOM     53 H53  LIG A   1      19.790  14.258  12.323  1.00 20.00    +0.023 H 
ATOM     54 H54  LIG A   1      19.952  16.631  11.679  1.00 20.00    +0.032 H 
ATOM     55 H55  LIG A   1      22.035  16.291  10.960  1.00 20.00    +0.032 H 
ATOM     56 H56  LIG A   1      21.694  14.588  11.040  1.00 20.00    +0.032 H 
ATOM     57 H57  LIG A   1      20.748  13.450   8.807  1.00 20.00    +0.063 H 
ATOM     58 H58  LIG A   1      20.619  13.624   6.368  1.00 20.00    +0.063 H 
ATOM     59 H59  LIG A   1      22.757  17.248   8.993  1.00 20.00    +0.067 H 
ATOM     60 H60  LIG A   1      23.414  19.358   7.220  1.00 20.00    +0.105 H 
ATOM     61 H61  LIG A   1      22.589  20.290   9.765  1.00 20.00    +0.063 H 
ATOM     62 H62  LIG A   1      22.910  22.508  10.744  1.00 20.00    +0.064 H 
ATOM     63 H63  LIG A   1      22.919  24.837  10.338  1.00 20.00    +0.160 HD
ATOM     64 H64  LIG A   1      22.356  26.171   8.278  1.00 20.00    +0.049 H 
ATOM     65 H65  LIG A   1      20.667  26.062   8.821  1.00 20.00    +0.049 H 
ATOM     66 H66  LIG A   1      21.853  28.164   9.496  1.00 20.00    +0.030 H 
ATOM     67 H67  LIG A   1      22.952  27.230  10.498  1.00 20.00    +0.030 H 
ATOM     68 H68  LIG A   1      19.900  27.389  10.780  1.00 20.00    +0.043 H 
ATOM     69 H69  LIG A   1      21.025  28.300  11.751  1.00 20.00    +0.043 H 
ATOM     70 H70  LIG A   1      20.962  25.363  11.616  1.00 20.00    +0.122 HD
ATOM     71 H71  LIG A   1      22.081  25.239  13.577  1.00 20.00    +0.043 H 
ATOM     72 H72  LIG A   1      22.972  26.380  12.595  1.00 20.00    +0.043 H 
ATOM     73 H73  LIG A   1      21.718  28.272  13.842  1.00 20.00    +0.028 H 
ATOM     74 H74  LIG A   1      22.869  27.323  14.752  1.00 20.00    +0.028 H 
ATOM     75 H75  LIG A   1      20.942  27.714  16.103  1.00 20.00    +0.028 H 
ATOM     76 H76  LIG A   1      21.092  25.992  15.792  1.00 20.00    +0.028 H 
ATOM     77 H77  LIG A   1      19.182  27.820  14.231  1.00 20.00    +0.043 H 
ATOM     78 H78  LIG A   1      19.239  26.047  14.180  1.00 20.00    +0.043 H 
ATOM     79 H79  LIG A   1      17.528  26.819  15.592  1.00 20.00    +0.118 HD
ATOM     80 H80  LIG A   1      18.565  27.679  16.514  1.00 20.00    +0.118 HD
ATOM     81 H81  LIG A   1      20.668  24.252   7.507  1.00 20.00    +0.064 H 
ATOM     82 H82  LIG A   1      20.373  22.058   6.520  1.00 20.00    +0.063 H 
ATOM     83 H83  LIG A   1      18.786  16.047   7.121  1.00 20.00    +0.050 H 
ATOM     84 H84  LIG A   1      17.640  17.365   7.110  1.00 20.00    +0.050 H 
ATOM     85 H85  LIG A   1      18.282  18.029   4.934  1.00 20.00    +0.029 H 
ATOM     86 H86  LIG A   1      18.188  16.295   4.905  1.00 20.00    +0.029 H 
ATOM     87 H87  LIG A   1      19.953  17.138   3.530  1.00 20.00    +0.028 H 
ATOM     88 H88  LIG A   1      20.719  17.997   4.806  1.00 20.00    +0.028 H 
ATOM     89 H89  LIG A   1      20.476  14.952   4.521  1.00 20.00    +0.047 H 
ATOM     90 H90  LIG A   1      22.785  15.936   2.129  1.00 20.00    +0.296 HD
ATOM     91 H91  LIG A   1      18.864  15.680   8.988  1.00 20.00    +0.057 H 
ATOM     92 H92  LIG A   1      17.851  17.592  10.947  1.00 20.00    +0.119 HD
ATOM     93 H93  LIG A   1      17.175  17.360   9.493  1.00 20.00    +0.119 HD
ATOM     94 H94  LIG A   1      18.808  23.560  10.494  1.00 20.00    +0.296 HD
ATOM     95 H95  LIG A   1      22.232  21.885   9.481  1.00 20.00    +0.055 H 
ATOM     96 H96  LIG A   1      21.691  21.385  11.114  1.00 20.00    +0.055 H 
ATOM     97 H97  LIG A   1      19.685  20.504   9.955  1.00 20.00    +0.123 HD
ATOM     98 H98  LIG A   1      22.299  19.370   9.127  1.00 20.00    +0.044 H 
ATOM     99 H99  LIG A   1      21.452  19.029  10.640  1.00 20.00    +0.044 H 
ATOM    100 H100 LIG A   1      21.068  17.192   9.061  1.00 20.00    +0.039 H 
ATOM    101 H101 LIG A   1      19.542  18.031   9.368  1.00 20.00    +0.039 H 
ATOM    102 H102 LIG A   1      19.975  19.695   7.235  1.00 20.00    +0.102 HD
ENDROOT
TORSDOF 0
                                                                                                         
ENDMDL
MODEL 3
REMARK VINA RESULT:   -11.071      2.988      9.771
REMARK INTER + INTRA:         -11.071
REMARK INTER:                 -11.071
REMARK INTRA:                   0.000
REMARK UNBOUND:                 0.000
ROOT
ATOM      1 C1   LIG A   1      23.211  23.354   5.633  1.00 20.00    -0.060 C 
ATOM      2 C2   LIG A   1      22.784  22.111   6.438  1.00 20.00    -0.016 C 
ATOM      3 C3   LIG A   1      24.046  21.527   7.161  1.00 20.00    -0.023 C 
ATOM      4 C4   LIG A   1      24.070  21.732   8.653  1.00 20.00    -0.044 A 
ATOM      5 C5   LIG A   1      24.256  23.002   9.203  1.00 20.00    -0.058 A 
ATOM      6 C6   LIG A   1      23.857  23.251  10.515  1.00 20.00    -0.054 A 
ATOM      7 C7   LIG A   1      23.232  22.243  11.274  1.00 20.00    +0.009 A 
ATOM      8 C8   LIG A   1      23.199  20.934  10.761  1.00 20.00    +0.130 A 
ATOM      9 C9   LIG A   1      23.687  20.671   9.481  1.00 20.00    -0.016 A 
ATOM     10 O10  LIG A   1      22.571  19.958  11.504  1.00 20.00    -0.464 OA
ATOM     11 C11  LIG A   1      21.857  18.976  10.849  1.00 20.00    +0.104 C 
ATOM     12 C12  LIG A   1      20.670  19.081  10.213  1.00 20.00    +0.082 C 
ATOM     13 C13  LIG A   1      20.031  17.839   9.728  1.00 20.00    -0.010 A 
ATOM     14 C14  LIG A   1      20.670  17.034   8.779  1.00 20.00    -0.052 A 
ATOM     15 C15  LIG A   1      20.071  15.852   8.326  1.00 20.00    -0.038 A 
ATOM     16 C16  LIG A   1      18.829  15.427   8.814  1.00 20.00    +0.034 A 
ATOM     17 N17  LIG A   1      18.262  14.276   8.257  1.00 20.00    -0.385 NA
ATOM     18 C18  LIG A   1      17.075  13.674   8.856  1.00 20.00    +0.016 C 
ATOM     19 C19  LIG A   1      16.628  12.450   8.048  1.00 20.00    -0.023 C 
ATOM     20 C20  LIG A   1      16.026  12.795   6.678  1.00 20.00    -0.003 C 
ATOM     21 N21  LIG A   1      16.947  13.445   5.741  1.00 20.00    -0.317 NA
ATOM     22 C22  LIG A   1      17.932  12.549   5.136  1.00 20.00    -0.005 C 
ATOM     23 C23  LIG A   1      17.373  11.624   4.048  1.00 20.00    -0.039 C 
ATOM     24 C24  LIG A   1      17.022  12.306   2.720  1.00 20.00    -0.040 C 
ATOM     25 C25  LIG A   1      15.898  13.336   2.809  1.00 20.00    -0.008 C 
ATOM     26 N26  LIG A   1      15.497  13.752   1.465  1.00 20.00    -0.330 NA
ATOM     27 C27  LIG A   1      18.177  16.259   9.728  1.00 20.00    -0.038 A 
ATOM     28 C28  LIG A   1      18.774  17.440  10.192  1.00 20.00    -0.052 A 
ATOM     29 C29  LIG A   1      19.934  20.392  10.135  1.00 20.00    +0.264 C 
ATOM     30 O30  LIG A   1      18.819  20.508  10.643  1.00 20.00    -0.268 OA
ATOM     31 N31  LIG A   1      20.582  21.440   9.492  1.00 20.00    -0.277 NA
ATOM     32 C32  LIG A   1      20.325  22.790  10.009  1.00 20.00    +0.029 C 
ATOM     33 C33  LIG A   1      20.100  22.996  11.524  1.00 20.00    -0.034 C 
ATOM     34 C34  LIG A   1      21.005  22.305  12.564  1.00 20.00    -0.034 C 
ATOM     35 C35  LIG A   1      22.521  22.637  12.560  1.00 20.00    +0.085 C 
ATOM     36 C36  LIG A   1      23.214  22.055  13.790  1.00 20.00    +0.311 C 
ATOM     37 O37  LIG A   1      24.215  21.358  13.832  1.00 20.00    -0.252 OA
ATOM     38 O38  LIG A   1      22.640  22.449  14.948  1.00 20.00    -0.481 OA
ATOM     39 C39  LIG A   1      21.043  21.225   8.180  1.00 20.00    +0.246 C 
ATOM     40 O40  LIG A   1      21.039  20.114   7.636  1.00 20.00    -0.273 OA
ATOM     41 C41  LIG A   1      21.541  22.443   7.338  1.00 20.00    +0.088 C 
ATOM     42 N42  LIG A   1      20.403  22.873   6.483  1.00 20.00    -0.320 NA
ATOM     43 O43  LIG A   1      18.016  15.454   7.584  1.00 20.00    -0.251 OA
ATOM     44 C44  LIG A   1      18.477  16.572   7.419  1.00 20.00    +0.317 C 
ATOM     45 O45  LIG A   1      17.728  17.538   6.836  1.00 20.00    -0.480 OA
ATOM     46 C46  LIG A   1      19.901  17.012   7.731  1.00 20.00    +0.094 C 
ATOM     47 N47  LIG A   1      19.941  18.443   8.089  1.00 20.00    -0.306 NA
ATOM     48 C48  LIG A   1      21.322  18.933   8.153  1.00 20.00    +0.005 C 
ATOM     49 C49  LIG A   1      21.389  20.415   8.552  1.00 20.00    +0.003 C 
ATOM     50 S50  LIG A   1      20.722  20.707  10.220  1.00 20.00    -0.178 SA
ATOM     51 H51  LIG A   1      22.399  23.727   5.000  1.00 20.00    +0.023 H 
ATOM     52 H52  LIG A   1      23.524  24.168   6.294  1.00 20.00    +0.023 H 
ATOM     53 H53  LIG A   1      24.048  23.115   4.967  1.00 20.00    +0.023 H 
ATOM     54 H54  LIG A   1      22.481  21.358   5.695  1.00 20.00    +0.032 H 
ATOM     55 H55  LIG A   1      24.086  20.449   6.949  1.00 20.00    +0.032 H 
ATOM     56 H56  LIG A   1      24.974  21.927   6.733  1.00 20.00    +0.032 H 
ATOM     57 H57  LIG A   1      24.612  23.825   8.588  1.00 20.00    +0.063 H 
ATOM     58 H58  LIG A   1      23.941  24.264  10.902  1.00 20.00    +0.063 H 
ATOM     59 H59  LIG A   1      23.608  19.670   9.063  1.00 20.00    +0.067 H 
ATOM     60 H60  LIG A   1      22.360  18.027  11.005  1.00 20.00    +0.105 H 
ATOM     61 H61  LIG A   1      21.627  17.334   8.357  1.00 20.00    +0.063 H 
ATOM     62 H62  LIG A   1      20.584  15.269   7.564  1.00 20.00    +0.064 H 
ATOM     63 H63  LIG A   1      18.980  13.594   8.020  1.00 20.00    +0.160 HD
ATOM     64 H64  LIG A   1      17.301  13.358   9.881  1.00 20.00    +0.049 H 
ATOM     65 H65  LIG A   1      16.246  14.392   8.892  1.00 20.00    +0.049 H 
ATOM     66 H66  LIG A   1      15.853  11.931   8.626  1.00 20.00    +0.030 H 
ATOM     67 H67  LIG A   1      17.458  11.742   7.939  1.00 20.00    +0.030 H 
ATOM     68 H68  LIG A   1      15.185  13.483   6.835  1.00 20.00    +0.043 H 
ATOM     69 H69  LIG A   1      15.588  11.897   6.235  1.00 20.00    +0.043 H 
ATOM     70 H70  LIG A   1      17.451  14.172   6.268  1.00 20.00    +0.122 HD
ATOM     71 H71  LIG A   1      18.719  13.168   4.688  1.00 20.00    +0.043 H 
ATOM     72 H72  LIG A   1      18.429  11.948   5.906  1.00 20.00    +0.043 H 
ATOM     73 H73  LIG A   1      16.506  11.063   4.414  1.00 20.00    +0.028 H 
ATOM     74 H74  LIG A   1      18.142  10.871   3.831  1.00 20.00    +0.028 H 
ATOM     75 H75  LIG A   1      16.737  11.516   2.013  1.00 20.00    +0.028 H 
ATOM     76 H76  LIG A   1      17.922  12.780   2.307  1.00 20.00    +0.028 H 
ATOM     77 H77  LIG A   1      15.031  12.918   3.332  1.00 20.00    +0.043 H 
ATOM     78 H78  LIG A   1      16.232  14.226   3.349  1.00 20.00    +0.043 H 
ATOM     79 H79  LIG A   1      14.745  14.436   1.543  1.00 20.00    +0.118 HD
ATOM     80 H80  LIG A   1      15.108  12.954   0.965  1.00 20.00    +0.118 HD
ATOM     81 H81  LIG A   1      17.190  16.015  10.107  1.00 20.00    +0.064 H 
ATOM     82 H82  LIG A   1      18.234  18.048  10.916  1.00 20.00    +0.063 H 
ATOM     83 H83  LIG A   1      21.153  23.443   9.740  1.00 20.00    +0.050 H 
ATOM     84 H84  LIG A   1      19.448  23.174   9.471  1.00 20.00    +0.050 H 
ATOM     85 H85  LIG A   1      19.066  22.708  11.757  1.00 20.00    +0.029 H 
ATOM     86 H86  LIG A   1      20.135  24.077  11.713  1.00 20.00    +0.029 H 
ATOM     87 H87  LIG A   1      20.603  22.610  13.541  1.00 20.00    +0.028 H 
ATOM     88 H88  LIG A   1      20.837  21.227  12.548  1.00 20.00    +0.028 H 
ATOM     89 H89  LIG A   1      22.612  23.726  12.674  1.00 20.00    +0.047 H 
ATOM     90 H90  LIG A   1      23.191  22.015  15.634  1.00 20.00    +0.296 HD
ATOM     91 H91  LIG A   1      21.806  23.295   7.957  1.00 20.00    +0.057 H 
ATOM     92 H92  LIG A   1      20.180  22.101   5.847  1.00 20.00    +0.119 HD
ATOM     93 H93  LIG A   1      19.565  22.993   7.053  1.00 20.00    +0.119 HD
ATOM     94 H94  LIG A   1      16.858  17.104   6.706  1.00 20.00    +0.296 HD
ATOM     95 H95  LIG A   1      20.263  16.416   8.576  1.00 20.00    +0.055 H 
ATOM     96 H96  LIG A   1      20.507  16.805   6.843  1.00 20.00    +0.055 H 
ATOM     97 H97  LIG A   1      19.408  18.960   7.383  1.00 20.00    +0.123 HD
ATOM     98 H98  LIG A   1      21.902  18.336   8.866  1.00 20.00    +0.044 H 
ATOM     99 H99  LIG A   1      21.796  18.821   7.171  1.00 20.00    +0.044 H 
ATOM    100 H100 LIG A   1      22.427  20.760   8.533  1.00 20.00    +0.039 H 
ATOM    101 H101 LIG A   1      20.822  21.026   7.841  1.00 20.00    +0.039 H 
ATOM    102 H102 LIG A   1      19.637  19.931  10.055  1.00 20.00    +0.102 HD
ENDROOT
TORSDOF 0
                                                                                                         
ENDMDL
MODEL 4
REMARK VINA RESULT:   -10.820      1.707      2.171
REMARK INTER + INTRA:         -10.820
REMARK INTER:                 -10.820
REMARK INTRA:                   0.000
REMARK UNBOUND:                 0.000
ROOT
ATOM      1 C1   LIG A   1      17.650  11.951  11.379  1.00 20.00    -0.060 C 
ATOM      2 C2   LIG A   1      18.370  13.045  10.567  1.00 20.00    -0.016 C 
ATOM      3 C3   LIG A   1      19.709  12.451  10.008  1.00 20.00    -0.023 C 
ATOM      4 C4   LIG A   1      19.716  12.198   8.523  1.00 20.00    -0.044 A 
ATOM      5 C5   LIG A   1      18.947  11.176   7.962  1.00 20.00    -0.058 A 
ATOM      6 C6   LIG A   1      18.624  11.220   6.607  1.00 20.00    -0.054 A 
ATOM      7 C7   LIG A   1      19.034  12.306   5.811  1.00 20.00    +0.009 A 
ATOM      8 C8   LIG A   1      19.937  13.238   6.353  1.00 20.00    +0.130 A 
ATOM      9 C9   LIG A   1      20.332  13.136   7.687  1.00 20.00    -0.016 A 
ATOM     10 O10  LIG A   1      20.320  14.307   5.571  1.00 20.00    -0.464 OA
ATOM     11 C11  LIG A   1      20.516  15.534   6.168  1.00 20.00    +0.104 C 
ATOM     12 C12  LIG A   1      19.592  16.387   6.662  1.00 20.00    +0.082 C 
ATOM     13 C13  LIG A   1      20.047  17.722   7.107  1.00 20.00    -0.010 A 
ATOM     14 C14  LIG A   1      20.978  17.847   8.144  1.00 20.00    -0.052 A 
ATOM     15 C15  LIG A   1      21.418  19.110   8.560  1.00 20.00    -0.038 A 
ATOM     16 C16  LIG A   1      20.960  20.283   7.946  1.00 20.00    +0.034 A 
ATOM     17 N17  LIG A   1      21.388  21.508   8.467  1.00 20.00    -0.385 NA
ATOM     18 C18  LIG A   1      21.109  22.751   7.754  1.00 20.00    +0.016 C 
ATOM     19 C19  LIG A   1      21.647  23.953   8.540  1.00 20.00    -0.023 C 
ATOM     20 C20  LIG A   1      20.860  24.259   9.823  1.00 20.00    -0.003 C 
ATOM     21 N21  LIG A   1      20.895  23.204  10.840  1.00 20.00    -0.317 NA
ATOM     22 C22  LIG A   1      22.154  23.111  11.577  1.00 20.00    -0.005 C 
ATOM     23 C23  LIG A   1      22.369  24.214  12.620  1.00 20.00    -0.039 C 
ATOM     24 C24  LIG A   1      21.501  24.107  13.881  1.00 20.00    -0.040 C 
ATOM     25 C25  LIG A   1      20.001  24.248  13.636  1.00 20.00    -0.008 C 
ATOM     26 N26  LIG A   1      19.296  24.356  14.914  1.00 20.00    -0.330 NA
ATOM     27 C27  LIG A   1      19.997  20.151   6.941  1.00 20.00    -0.038 A 
ATOM     28 C28  LIG A   1      19.558  18.889   6.515  1.00 20.00    -0.052 A 
ATOM     29 C29  LIG A   1      18.123  16.063   6.620  1.00 20.00    +0.264 C 
ATOM     30 O30  LIG A   1      17.348  16.780   5.986  1.00 20.00    -0.268 OA
ATOM     31 N31  LIG A   1      17.709  14.925   7.303  1.00 20.00    -0.277 NA
ATOM     32 C32  LIG A   1      16.584  14.181   6.723  1.00 20.00    +0.029 C 
ATOM     33 C33  LIG A   1      16.428  14.111   5.186  1.00 20.00    -0.034 C 
ATOM     34 C34  LIG A   1      17.640  13.832   4.275  1.00 20.00    -0.034 C 
ATOM     35 C35  LIG A   1      18.395  12.487   4.442  1.00 20.00    +0.085 C 
ATOM     36 C36  LIG A   1      19.405  12.279   3.315  1.00 20.00    +0.311 C 
ATOM     37 O37  LIG A   1      20.589  11.999   3.407  1.00 20.00    -0.252 OA
ATOM     38 O38  LIG A   1      18.844  12.366   2.089  1.00 20.00    -0.481 OA
ATOM     39 C39  LIG A   1      18.046  14.813   8.664  1.00 20.00    +0.246 C 
ATOM     40 O40  LIG A   1      18.819  15.593   9.235  1.00 20.00    -0.273 OA
ATOM     41 C41  LIG A   1      17.388  13.686   9.523  1.00 20.00    +0.088 C 
ATOM     42 N42  LIG A   1      16.234  14.300  10.231  1.00 20.00    -0.320 NA
ATOM     43 O43  LIG A   1      20.284  20.949   9.075  1.00 20.00    -0.251 OA
ATOM     44 C44  LIG A   1      19.740  19.872   9.259  1.00 20.00    +0.317 C 
ATOM     45 O45  LIG A   1      18.471  19.821   9.726  1.00 20.00    -0.480 OA
ATOM     46 C46  LIG A   1      20.384  18.502   9.098  1.00 20.00    +0.094 C 
ATOM     47 N47  LIG A   1      19.380  17.493   8.707  1.00 20.00    -0.306 NA
ATOM     48 C48  LIG A   1      19.934  16.137   8.787  1.00 20.00    +0.005 C 
ATOM     49 C49  LIG A   1      18.915  15.072   8.356  1.00 20.00    +0.003 C 
ATOM     50 S50  LIG A   1      18.417  15.263   6.616  1.00 20.00    -0.178 SA
ATOM     51 H51  LIG A   1      16.775  12.347  11.906  1.00 20.00    +0.023 H 
ATOM     52 H52  LIG A   1      17.314  11.132  10.736  1.00 20.00    +0.023 H 
ATOM     53 H53  LIG A   1      18.317  11.534  12.143  1.00 20.00    +0.023 H 
ATOM     54 H54  LIG A   1      18.659  13.821  11.291  1.00 20.00    +0.032 H 
ATOM     55 H55  LIG A   1      20.517  13.155  10.254  1.00 20.00    +0.032 H 
ATOM     56 H56  LIG A   1      19.983  11.524  10.527  1.00 20.00    +0.032 H 
ATOM     57 H57  LIG A   1      18.511  10.403   8.590  1.00 20.00    +0.063 H 
ATOM     58 H58  LIG A   1      17.963  10.456   6.204  1.00 20.00    +0.063 H 
ATOM     59 H59  LIG A   1      20.985  13.890   8.121  1.00 20.00    +0.067 H 
ATOM     60 H60  LIG A   1      21.570  15.784   6.097  1.00 20.00    +0.105 H 
ATOM     61 H61  LIG A   1      21.346  16.965   8.663  1.00 20.00    +0.063 H 
ATOM     62 H62  LIG A   1      22.117  19.168   9.390  1.00 20.00    +0.064 H 
ATOM     63 H63  LIG A   1      22.347  21.447   8.803  1.00 20.00    +0.160 HD
ATOM     64 H64  LIG A   1      21.593  22.727   6.771  1.00 20.00    +0.049 H 
ATOM     65 H65  LIG A   1      20.031  22.885   7.605  1.00 20.00    +0.049 H 
ATOM     66 H66  LIG A   1      21.577  24.836   7.893  1.00 20.00    +0.030 H 
ATOM     67 H67  LIG A   1      22.712  23.816   8.762  1.00 20.00    +0.030 H 
ATOM     68 H68  LIG A   1      19.807  24.414   9.553  1.00 20.00    +0.043 H 
ATOM     69 H69  LIG A   1      21.196  25.213  10.239  1.00 20.00    +0.043 H 
ATOM     70 H70  LIG A   1      20.738  22.310  10.353  1.00 20.00    +0.122 HD
ATOM     71 H71  LIG A   1      22.171  22.144  12.095  1.00 20.00    +0.043 H 
ATOM     72 H72  LIG A   1      23.005  23.093  10.886  1.00 20.00    +0.043 H 
ATOM     73 H73  LIG A   1      22.249  25.208  12.174  1.00 20.00    +0.028 H 
ATOM     74 H74  LIG A   1      23.416  24.161  12.945  1.00 20.00    +0.028 H 
ATOM     75 H75  LIG A   1      21.833  24.892  14.573  1.00 20.00    +0.028 H 
ATOM     76 H76  LIG A   1      21.704  23.151  14.379  1.00 20.00    +0.028 H 
ATOM     77 H77  LIG A   1      19.789  25.135  13.030  1.00 20.00    +0.043 H 
ATOM     78 H78  LIG A   1      19.611  23.371  13.113  1.00 20.00    +0.043 H 
ATOM     79 H79  LIG A   1      18.297  24.452  14.732  1.00 20.00    +0.118 HD
ATOM     80 H80  LIG A   1      19.584  25.210  15.389  1.00 20.00    +0.118 HD
ATOM     81 H81  LIG A   1      19.564  21.021   6.460  1.00 20.00    +0.064 H 
ATOM     82 H82  LIG A   1      18.818  18.837   5.718  1.00 20.00    +0.063 H 
ATOM     83 H83  LIG A   1      16.620  13.149   7.065  1.00 20.00    +0.050 H 
ATOM     84 H84  LIG A   1      15.667  14.610   7.146  1.00 20.00    +0.050 H 
ATOM     85 H85  LIG A   1      15.981  15.054   4.846  1.00 20.00    +0.029 H 
ATOM     86 H86  LIG A   1      15.665  13.351   4.973  1.00 20.00    +0.029 H 
ATOM     87 H87  LIG A   1      17.242  13.862   3.251  1.00 20.00    +0.028 H 
ATOM     88 H88  LIG A   1      18.330  14.677   4.302  1.00 20.00    +0.028 H 
ATOM     89 H89  LIG A   1      17.656  11.684   4.309  1.00 20.00    +0.047 H 
ATOM     90 H90  LIG A   1      19.597  12.201   1.482  1.00 20.00    +0.296 HD
ATOM     91 H91  LIG A   1      16.989  12.881   8.914  1.00 20.00    +0.057 H 
ATOM     92 H92  LIG A   1      16.599  15.022  10.858  1.00 20.00    +0.119 HD
ATOM     93 H93  LIG A   1      15.646  14.804   9.566  1.00 20.00    +0.119 HD
ATOM     94 H94  LIG A   1      18.206  20.764   9.769  1.00 20.00    +0.296 HD
ATOM     95 H95  LIG A   1      21.148  18.575   8.317  1.00 20.00    +0.055 H 
ATOM     96 H96  LIG A   1      20.854  18.248  10.055  1.00 20.00    +0.055 H 
ATOM     97 H97  LIG A   1      18.576  17.590   9.333  1.00 20.00    +0.123 HD
ATOM     98 H98  LIG A   1      20.831  16.059   8.161  1.00 20.00    +0.044 H 
ATOM     99 H99  LIG A   1      20.236  15.925   9.819  1.00 20.00    +0.044 H 
ATOM    100 H100 LIG A   1      19.342  14.073   8.483  1.00 20.00    +0.039 H 
ATOM    101 H101 LIG A   1      18.017  15.132   8.981  1.00 20.00    +0.039 H 
ATOM    102 H102 LIG A   1      18.261  16.596   6.679  1.00 20.00    +0.102 HD
ENDROOT
TORSDOF 0
                                                                                                         
ENDMDL
MODEL 5
REMARK VINA RESULT:   -10.695     10.435     14.123
REMARK INTER + INTRA:         -10.695
REMARK INTER:                 -10.695
REMARK INTRA:                   0.000
REMARK UNBOUND:                 0.000
ROOT
ATOM      1 C1   LIG A   1       6.588  16.924   1.126  1.00 20.00    -0.060 C 
ATOM      2 C2   LIG A   1       7.627  15.795   1.270  1.00 20.00    -0.016 C 
ATOM      3 C3   LIG A   1       6.917  14.537   1.878  1.00 20.00    -0.023 C 
ATOM      4 C4   LIG A   1       6.714  13.399   0.912  1.00 20.00    -0.044 A 
ATOM      5 C5   LIG A   1       5.796  13.497  -0.136  1.00 20.00    -0.058 A 
ATOM      6 C6   LIG A   1       5.918  12.657  -1.241  1.00 20.00    -0.054 A 
ATOM      7 C7   LIG A   1       6.981  11.738  -1.325  1.00 20.00    +0.009 A 
ATOM      8 C8   LIG A   1       7.797  11.543  -0.195  1.00 20.00    +0.130 A 
ATOM      9 C9   LIG A   1       7.610  12.325   0.946  1.00 20.00    -0.016 A 
ATOM     10 O10  LIG A   1       8.845  10.654  -0.292  1.00 20.00    -0.464 OA
ATOM     11 C11  LIG A   1      10.025  10.939   0.361  1.00 20.00    +0.104 C 
ATOM     12 C12  LIG A   1      10.952  11.873   0.056  1.00 20.00    +0.082 C 
ATOM     13 C13  LIG A   1      12.217  11.872   0.821  1.00 20.00    -0.010 A 
ATOM     14 C14  LIG A   1      12.211  12.074   2.206  1.00 20.00    -0.052 A 
ATOM     15 C15  LIG A   1      13.407  12.063   2.934  1.00 20.00    -0.038 A 
ATOM     16 C16  LIG A   1      14.641  11.833   2.312  1.00 20.00    +0.034 A 
ATOM     17 N17  LIG A   1      15.797  11.912   3.095  1.00 20.00    -0.385 NA
ATOM     18 C18  LIG A   1      17.085  11.490   2.553  1.00 20.00    +0.016 C 
ATOM     19 C19  LIG A   1      18.198  11.705   3.585  1.00 20.00    -0.023 C 
ATOM     20 C20  LIG A   1      18.541  13.181   3.832  1.00 20.00    -0.003 C 
ATOM     21 N21  LIG A   1      17.455  13.986   4.399  1.00 20.00    -0.317 NA
ATOM     22 C22  LIG A   1      17.208  13.756   5.822  1.00 20.00    -0.005 C 
ATOM     23 C23  LIG A   1      18.248  14.378   6.761  1.00 20.00    -0.039 C 
ATOM     24 C24  LIG A   1      18.190  15.906   6.890  1.00 20.00    -0.040 C 
ATOM     25 C25  LIG A   1      18.493  16.666   5.601  1.00 20.00    -0.008 C 
ATOM     26 N26  LIG A   1      18.632  18.095   5.887  1.00 20.00    -0.330 NA
ATOM     27 C27  LIG A   1      14.643  11.677   0.923  1.00 20.00    -0.038 A 
ATOM     28 C28  LIG A   1      13.448  11.679   0.189  1.00 20.00    -0.052 A 
ATOM     29 C29  LIG A   1      10.784  12.789  -1.127  1.00 20.00    +0.264 C 
ATOM     30 O30  LIG A   1      11.598  12.764  -2.051  1.00 20.00    -0.268 OA
ATOM     31 N31  LIG A   1       9.673  13.624  -1.124  1.00 20.00    -0.277 NA
ATOM     32 C32  LIG A   1       9.069  13.923  -2.428  1.00 20.00    +0.029 C 
ATOM     33 C33  LIG A   1       9.066  12.841  -3.533  1.00 20.00    -0.034 C 
ATOM     34 C34  LIG A   1       8.693  11.380  -3.214  1.00 20.00    -0.034 C 
ATOM     35 C35  LIG A   1       7.272  11.083  -2.667  1.00 20.00    +0.085 C 
ATOM     36 C36  LIG A   1       6.999   9.580  -2.633  1.00 20.00    +0.311 C 
ATOM     37 O37  LIG A   1       6.595   8.909  -1.698  1.00 20.00    -0.252 OA
ATOM     38 O38  LIG A   1       7.184   8.989  -3.834  1.00 20.00    -0.481 OA
ATOM     39 C39  LIG A   1       9.482  14.463  -0.010  1.00 20.00    +0.246 C 
ATOM     40 O40  LIG A   1      10.158  14.379   1.022  1.00 20.00    -0.273 OA
ATOM     41 C41  LIG A   1       8.401  15.589  -0.081  1.00 20.00    +0.088 C 
ATOM     42 N42  LIG A   1       9.108  16.844  -0.450  1.00 20.00    -0.320 NA
ATOM     43 O43  LIG A   1      15.336  13.106   2.581  1.00 20.00    -0.251 OA
ATOM     44 C44  LIG A   1      14.315  13.637   2.174  1.00 20.00    +0.317 C 
ATOM     45 O45  LIG A   1      14.381  14.807   1.496  1.00 20.00    -0.480 OA
ATOM     46 C46  LIG A   1      12.891  13.160   2.426  1.00 20.00    +0.094 C 
ATOM     47 N47  LIG A   1      12.006  13.538   1.307  1.00 20.00    -0.306 NA
ATOM     48 C48  LIG A   1      10.598  13.302   1.644  1.00 20.00    +0.005 C 
ATOM     49 C49  LIG A   1       9.659  13.663   0.483  1.00 20.00    +0.003 C 
ATOM     50 S50  LIG A   1       9.958  12.631  -0.985  1.00 20.00    -0.178 SA
ATOM     51 H51  LIG A   1       7.054  17.870   0.832  1.00 20.00    +0.023 H 
ATOM     52 H52  LIG A   1       5.830  16.674   0.377  1.00 20.00    +0.023 H 
ATOM     53 H53  LIG A   1       6.079  17.104   2.080  1.00 20.00    +0.023 H 
ATOM     54 H54  LIG A   1       8.345  16.137   2.030  1.00 20.00    +0.032 H 
ATOM     55 H55  LIG A   1       7.525  14.183   2.723  1.00 20.00    +0.032 H 
ATOM     56 H56  LIG A   1       5.949  14.800   2.324  1.00 20.00    +0.032 H 
ATOM     57 H57  LIG A   1       5.052  14.290  -0.148  1.00 20.00    +0.063 H 
ATOM     58 H58  LIG A   1       5.240  12.798  -2.080  1.00 20.00    +0.063 H 
ATOM     59 H59  LIG A   1       8.277  12.213   1.797  1.00 20.00    +0.067 H 
ATOM     60 H60  LIG A   1      10.167  10.204   1.147  1.00 20.00    +0.105 H 
ATOM     61 H61  LIG A   1      11.279  12.275   2.729  1.00 20.00    +0.063 H 
ATOM     62 H62  LIG A   1      13.365  12.255   4.004  1.00 20.00    +0.064 H 
ATOM     63 H63  LIG A   1      15.625  11.563   4.035  1.00 20.00    +0.160 HD
ATOM     64 H64  LIG A   1      17.043  10.426   2.294  1.00 20.00    +0.049 H 
ATOM     65 H65  LIG A   1      17.335  12.055   1.647  1.00 20.00    +0.049 H 
ATOM     66 H66  LIG A   1      19.105  11.215   3.209  1.00 20.00    +0.030 H 
ATOM     67 H67  LIG A   1      17.945  11.204   4.527  1.00 20.00    +0.030 H 
ATOM     68 H68  LIG A   1      18.814  13.637   2.870  1.00 20.00    +0.043 H 
ATOM     69 H69  LIG A   1      19.441  13.249   4.450  1.00 20.00    +0.043 H 
ATOM     70 H70  LIG A   1      16.600  13.746   3.879  1.00 20.00    +0.122 HD
ATOM     71 H71  LIG A   1      16.228  14.184   6.066  1.00 20.00    +0.043 H 
ATOM     72 H72  LIG A   1      17.124  12.683   6.030  1.00 20.00    +0.043 H 
ATOM     73 H73  LIG A   1      19.263  14.071   6.486  1.00 20.00    +0.028 H 
ATOM     74 H74  LIG A   1      18.076  13.964   7.764  1.00 20.00    +0.028 H 
ATOM     75 H75  LIG A   1      18.913  16.196   7.663  1.00 20.00    +0.028 H 
ATOM     76 H76  LIG A   1      17.202  16.200   7.265  1.00 20.00    +0.028 H 
ATOM     77 H77  LIG A   1      19.417  16.298   5.143  1.00 20.00    +0.043 H 
ATOM     78 H78  LIG A   1      17.680  16.547   4.881  1.00 20.00    +0.043 H 
ATOM     79 H79  LIG A   1      18.837  18.586   5.017  1.00 20.00    +0.118 HD
ATOM     80 H80  LIG A   1      19.435  18.243   6.496  1.00 20.00    +0.118 HD
ATOM     81 H81  LIG A   1      15.568  11.546   0.373  1.00 20.00    +0.064 H 
ATOM     82 H82  LIG A   1      13.499  11.538  -0.890  1.00 20.00    +0.063 H 
ATOM     83 H83  LIG A   1       8.028  14.206  -2.287  1.00 20.00    +0.050 H 
ATOM     84 H84  LIG A   1       9.577  14.815  -2.817  1.00 20.00    +0.050 H 
ATOM     85 H85  LIG A   1      10.061  12.825  -3.996  1.00 20.00    +0.029 H 
ATOM     86 H86  LIG A   1       8.397  13.193  -4.329  1.00 20.00    +0.029 H 
ATOM     87 H87  LIG A   1       8.799  10.842  -4.168  1.00 20.00    +0.028 H 
ATOM     88 H88  LIG A   1       9.461  10.927  -2.584  1.00 20.00    +0.028 H 
ATOM     89 H89  LIG A   1       6.556  11.483  -3.397  1.00 20.00    +0.047 H 
ATOM     90 H90  LIG A   1       6.962   8.049  -3.661  1.00 20.00    +0.296 HD
ATOM     91 H91  LIG A   1       7.662  15.407  -0.855  1.00 20.00    +0.057 H 
ATOM     92 H92  LIG A   1       9.767  17.065   0.301  1.00 20.00    +0.119 HD
ATOM     93 H93  LIG A   1       9.691  16.685  -1.273  1.00 20.00    +0.119 HD
ATOM     94 H94  LIG A   1      15.344  14.970   1.415  1.00 20.00    +0.296 HD
ATOM     95 H95  LIG A   1      12.911  12.069   2.520  1.00 20.00    +0.055 H 
ATOM     96 H96  LIG A   1      12.559  13.608   3.368  1.00 20.00    +0.055 H 
ATOM     97 H97  LIG A   1      12.165  14.529   1.100  1.00 20.00    +0.123 HD
ATOM     98 H98  LIG A   1      10.448  12.253   1.924  1.00 20.00    +0.044 H 
ATOM     99 H99  LIG A   1      10.321  13.914   2.511  1.00 20.00    +0.044 H 
ATOM    100 H100 LIG A   1       8.618  13.529   0.790  1.00 20.00    +0.039 H 
ATOM    101 H101 LIG A   1       9.791  14.713   0.201  1.00 20.00    +0.039 H 
ATOM    102 H102 LIG A   1      11.298  12.724  -0.931  1.00 20.00    +0.102 HD
ENDROOT
TORSDOF 0
                                                                                                         
ENDMDL
MODEL 6
REMARK VINA RESULT:   -10.515      2.922     10.100
REMARK INTER + INTRA:         -10.515
REMARK INTER:                 -10.515
REMARK INTRA:                   0.000
REMARK UNBOUND:                 0.000
ROOT
ATOM      1 C1   LIG A   1      22.735  25.642   7.625  1.00 20.00    -0.060 C 
ATOM      2 C2   LIG A   1      22.686  24.236   8.255  1.00 20.00    -0.016 C 
ATOM      3 C3   LIG A   1      24.154  23.766   8.539  1.00 20.00    -0.023 C 
ATOM      4 C4   LIG A   1      24.538  23.741   9.995  1.00 20.00    -0.044 A 
ATOM      5 C5   LIG A   1      24.704  24.924  10.718  1.00 20.00    -0.058 A 
ATOM      6 C6   LIG A   1      24.630  24.899  12.110  1.00 20.00    -0.054 A 
ATOM      7 C7   LIG A   1      24.352  23.698  12.788  1.00 20.00    +0.009 A 
ATOM      8 C8   LIG A   1      24.347  22.495  12.058  1.00 20.00    +0.130 A 
ATOM      9 C9   LIG A   1      24.515  22.517  10.673  1.00 20.00    -0.016 A 
ATOM     10 O10  LIG A   1      24.057  21.326  12.728  1.00 20.00    -0.464 OA
ATOM     11 C11  LIG A   1      23.324  20.352  12.084  1.00 20.00    +0.104 C 
ATOM     12 C12  LIG A   1      22.009  20.355  11.774  1.00 20.00    +0.082 C 
ATOM     13 C13  LIG A   1      21.423  19.113  11.224  1.00 20.00    -0.010 A 
ATOM     14 C14  LIG A   1      21.888  18.580  10.018  1.00 20.00    -0.052 A 
ATOM     15 C15  LIG A   1      21.342  17.399   9.501  1.00 20.00    -0.038 A 
ATOM     16 C16  LIG A   1      20.330  16.704  10.175  1.00 20.00    +0.034 A 
ATOM     17 N17  LIG A   1      19.783  15.575   9.558  1.00 20.00    -0.385 NA
ATOM     18 C18  LIG A   1      18.874  14.700  10.292  1.00 20.00    +0.016 C 
ATOM     19 C19  LIG A   1      18.387  13.557   9.394  1.00 20.00    -0.023 C 
ATOM     20 C20  LIG A   1      17.413  14.004   8.293  1.00 20.00    -0.003 C 
ATOM     21 N21  LIG A   1      17.973  14.933   7.308  1.00 20.00    -0.317 NA
ATOM     22 C22  LIG A   1      18.870  14.316   6.331  1.00 20.00    -0.005 C 
ATOM     23 C23  LIG A   1      18.166  13.489   5.249  1.00 20.00    -0.039 C 
ATOM     24 C24  LIG A   1      17.403  14.299   4.194  1.00 20.00    -0.040 C 
ATOM     25 C25  LIG A   1      16.223  15.102   4.736  1.00 20.00    -0.008 C 
ATOM     26 N26  LIG A   1      15.439  15.647   3.627  1.00 20.00    -0.330 NA
ATOM     27 C27  LIG A   1      19.840  17.267  11.358  1.00 20.00    -0.038 A 
ATOM     28 C28  LIG A   1      20.388  18.445  11.884  1.00 20.00    -0.052 A 
ATOM     29 C29  LIG A   1      21.123  21.522  12.120  1.00 20.00    +0.264 C 
ATOM     30 O30  LIG A   1      20.172  21.372  12.887  1.00 20.00    -0.268 OA
ATOM     31 N31  LIG A   1      21.449  22.749  11.555  1.00 20.00    -0.277 NA
ATOM     32 C32  LIG A   1      21.172  23.942  12.364  1.00 20.00    +0.029 C 
ATOM     33 C33  LIG A   1      21.324  23.873  13.901  1.00 20.00    -0.034 C 
ATOM     34 C34  LIG A   1      22.544  23.191  14.550  1.00 20.00    -0.034 C 
ATOM     35 C35  LIG A   1      23.955  23.766  14.255  1.00 20.00    +0.085 C 
ATOM     36 C36  LIG A   1      25.009  23.125  15.156  1.00 20.00    +0.311 C 
ATOM     37 O37  LIG A   1      26.064  22.606  14.829  1.00 20.00    -0.252 OA
ATOM     38 O38  LIG A   1      24.711  23.236  16.469  1.00 20.00    -0.481 OA
ATOM     39 C39  LIG A   1      21.577  22.817  10.155  1.00 20.00    +0.246 C 
ATOM     40 O40  LIG A   1      21.569  21.817   9.427  1.00 20.00    -0.273 OA
ATOM     41 C41  LIG A   1      21.687  24.215   9.467  1.00 20.00    +0.088 C 
ATOM     42 N42  LIG A   1      20.323  24.576   8.999  1.00 20.00    -0.320 NA
ATOM     43 O43  LIG A   1      19.229  16.785   9.197  1.00 20.00    -0.251 OA
ATOM     44 C44  LIG A   1      19.491  17.975   9.145  1.00 20.00    +0.317 C 
ATOM     45 O45  LIG A   1      18.505  18.882   8.947  1.00 20.00    -0.480 OA
ATOM     46 C46  LIG A   1      20.882  18.592   9.194  1.00 20.00    +0.094 C 
ATOM     47 N47  LIG A   1      20.839  19.938   9.798  1.00 20.00    -0.306 NA
ATOM     48 C48  LIG A   1      22.118  20.635   9.629  1.00 20.00    +0.005 C 
ATOM     49 C49  LIG A   1      22.105  22.028  10.275  1.00 20.00    +0.003 C 
ATOM     50 S50  LIG A   1      21.862  21.946  12.077  1.00 20.00    -0.178 SA
ATOM     51 H51  LIG A   1      21.747  25.967   7.281  1.00 20.00    +0.023 H 
ATOM     52 H52  LIG A   1      23.106  26.385   8.337  1.00 20.00    +0.023 H 
ATOM     53 H53  LIG A   1      23.394  25.649   6.748  1.00 20.00    +0.023 H 
ATOM     54 H54  LIG A   1      22.296  23.566   7.475  1.00 20.00    +0.032 H 
ATOM     55 H55  LIG A   1      24.269  22.754   8.123  1.00 20.00    +0.032 H 
ATOM     56 H56  LIG A   1      24.883  24.375   7.990  1.00 20.00    +0.032 H 
ATOM     57 H57  LIG A   1      24.785  25.879  10.205  1.00 20.00    +0.063 H 
ATOM     58 H58  LIG A   1      24.687  25.841  12.651  1.00 20.00    +0.063 H 
ATOM     59 H59  LIG A   1      24.454  21.592  10.103  1.00 20.00    +0.067 H 
ATOM     60 H60  LIG A   1      23.962  19.487  11.934  1.00 20.00    +0.105 H 
ATOM     61 H61  LIG A   1      22.659  19.096   9.449  1.00 20.00    +0.063 H 
ATOM     62 H62  LIG A   1      21.707  17.033   8.544  1.00 20.00    +0.064 H 
ATOM     63 H63  LIG A   1      20.493  15.066   9.035  1.00 20.00    +0.160 HD
ATOM     64 H64  LIG A   1      19.395  14.272  11.157  1.00 20.00    +0.049 H 
ATOM     65 H65  LIG A   1      18.002  15.255  10.657  1.00 20.00    +0.049 H 
ATOM     66 H66  LIG A   1      17.857  12.834  10.028  1.00 20.00    +0.030 H 
ATOM     67 H67  LIG A   1      19.241  13.022   8.962  1.00 20.00    +0.030 H 
ATOM     68 H68  LIG A   1      16.563  14.510   8.770  1.00 20.00    +0.043 H 
ATOM     69 H69  LIG A   1      16.988  13.124   7.802  1.00 20.00    +0.043 H 
ATOM     70 H70  LIG A   1      18.504  15.643   7.831  1.00 20.00    +0.122 HD
ATOM     71 H71  LIG A   1      19.432  15.118   5.838  1.00 20.00    +0.043 H 
ATOM     72 H72  LIG A   1      19.620  13.695   6.835  1.00 20.00    +0.043 H 
ATOM     73 H73  LIG A   1      17.499  12.743   5.694  1.00 20.00    +0.028 H 
ATOM     74 H74  LIG A   1      18.938  12.916   4.718  1.00 20.00    +0.028 H 
ATOM     75 H75  LIG A   1      17.043  13.591   3.436  1.00 20.00    +0.028 H 
ATOM     76 H76  LIG A   1      18.100  14.973   3.680  1.00 20.00    +0.028 H 
ATOM     77 H77  LIG A   1      15.579  14.472   5.358  1.00 20.00    +0.043 H 
ATOM     78 H78  LIG A   1      16.573  15.942   5.343  1.00 20.00    +0.043 H 
ATOM     79 H79  LIG A   1      14.655  16.178   4.007  1.00 20.00    +0.118 HD
ATOM     80 H80  LIG A   1      15.034  14.883   3.090  1.00 20.00    +0.118 HD
ATOM     81 H81  LIG A   1      19.023  16.807  11.903  1.00 20.00    +0.064 H 
ATOM     82 H82  LIG A   1      19.983  18.837  12.817  1.00 20.00    +0.063 H 
ATOM     83 H83  LIG A   1      21.816  24.757  12.038  1.00 20.00    +0.050 H 
ATOM     84 H84  LIG A   1      20.145  24.253  12.129  1.00 20.00    +0.050 H 
ATOM     85 H85  LIG A   1      20.429  23.386  14.309  1.00 20.00    +0.029 H 
ATOM     86 H86  LIG A   1      21.273  24.903  14.278  1.00 20.00    +0.029 H 
ATOM     87 H87  LIG A   1      22.375  23.271  15.634  1.00 20.00    +0.028 H 
ATOM     88 H88  LIG A   1      22.511  22.115  14.369  1.00 20.00    +0.028 H 
ATOM     89 H89  LIG A   1      23.939  24.824  14.549  1.00 20.00    +0.047 H 
ATOM     90 H90  LIG A   1      25.470  22.800  16.912  1.00 20.00    +0.296 HD
ATOM     91 H91  LIG A   1      21.997  24.994  10.158  1.00 20.00    +0.057 H 
ATOM     92 H92  LIG A   1      20.039  23.885   8.299  1.00 20.00    +0.119 HD
ATOM     93 H93  LIG A   1      19.653  24.467   9.762  1.00 20.00    +0.119 HD
ATOM     94 H94  LIG A   1      17.691  18.335   8.944  1.00 20.00    +0.296 HD
ATOM     95 H95  LIG A   1      21.521  17.943   9.801  1.00 20.00    +0.055 H 
ATOM     96 H96  LIG A   1      21.259  18.627   8.166  1.00 20.00    +0.055 H 
ATOM     97 H97  LIG A   1      20.082  20.462   9.347  1.00 20.00    +0.123 HD
ATOM     98 H98  LIG A   1      22.931  20.040  10.060  1.00 20.00    +0.044 H 
ATOM     99 H99  LIG A   1      22.332  20.755   8.560  1.00 20.00    +0.044 H 
ATOM    100 H100 LIG A   1      23.052  22.540  10.080  1.00 20.00    +0.039 H 
ATOM    101 H101 LIG A   1      21.303  22.639   9.846  1.00 20.00    +0.039 H 
ATOM    102 H102 LIG A   1      20.874  21.036  12.026  1.00 20.00    +0.102 HD
ENDROOT
TORSDOF 0
                                                                                                         
ENDMDL
MODEL 7
REMARK VINA RESULT:   -10.387      4.410      6.309
REMARK INTER + INTRA:         -10.387
REMARK INTER:                 -10.387
REMARK INTRA:                   0.000
REMARK UNBOUND:                 0.000
ROOT
ATOM      1 C1   LIG A   1      20.810  17.481  12.556  1.00 20.00    -0.060 C 
ATOM      2 C2   LIG A   1      21.095  18.974  12.303  1.00 20.00    -0.016 C 
ATOM      3 C3   LIG A   1      22.647  19.196  12.319  1.00 20.00    -0.023 C 
ATOM      4 C4   LIG A   1      23.258  19.477  10.972  1.00 20.00    -0.044 A 
ATOM      5 C5   LIG A   1      23.340  18.482   9.995  1.00 20.00    -0.058 A 
ATOM      6 C6   LIG A   1      23.496  18.839   8.657  1.00 20.00    -0.054 A 
ATOM      7 C7   LIG A   1      23.532  20.195   8.280  1.00 20.00    +0.009 A 
ATOM      8 C8   LIG A   1      23.608  21.174   9.287  1.00 20.00    +0.130 A 
ATOM      9 C9   LIG A   1      23.546  20.803  10.631  1.00 20.00    -0.016 A 
ATOM     10 O10  LIG A   1      23.626  22.500   8.909  1.00 20.00    -0.464 OA
ATOM     11 C11  LIG A   1      22.970  23.426   9.691  1.00 20.00    +0.104 C 
ATOM     12 C12  LIG A   1      21.640  23.614   9.837  1.00 20.00    +0.082 C 
ATOM     13 C13  LIG A   1      21.186  24.788  10.614  1.00 20.00    -0.010 A 
ATOM     14 C14  LIG A   1      21.534  24.926  11.962  1.00 20.00    -0.052 A 
ATOM     15 C15  LIG A   1      21.114  26.042  12.697  1.00 20.00    -0.038 A 
ATOM     16 C16  LIG A   1      20.352  27.060  12.110  1.00 20.00    +0.034 A 
ATOM     17 N17  LIG A   1      19.907  28.104  12.928  1.00 20.00    -0.385 NA
ATOM     18 C18  LIG A   1      19.285  29.287  12.341  1.00 20.00    +0.016 C 
ATOM     19 C19  LIG A   1      18.854  30.267  13.439  1.00 20.00    -0.023 C 
ATOM     20 C20  LIG A   1      17.657  29.783  14.270  1.00 20.00    -0.003 C 
ATOM     21 N21  LIG A   1      17.891  28.560  15.043  1.00 20.00    -0.317 NA
ATOM     22 C22  LIG A   1      18.709  28.745  16.241  1.00 20.00    -0.005 C 
ATOM     23 C23  LIG A   1      17.987  29.425  17.411  1.00 20.00    -0.039 C 
ATOM     24 C24  LIG A   1      16.941  28.564  18.130  1.00 20.00    -0.040 C 
ATOM     25 C25  LIG A   1      15.747  28.158  17.269  1.00 20.00    -0.008 C 
ATOM     26 N26  LIG A   1      14.717  27.540  18.104  1.00 20.00    -0.330 NA
ATOM     27 C27  LIG A   1      19.972  26.893  10.775  1.00 20.00    -0.038 A 
ATOM     28 C28  LIG A   1      20.395  25.782  10.032  1.00 20.00    -0.052 A 
ATOM     29 C29  LIG A   1      20.642  22.758   9.105  1.00 20.00    +0.264 C 
ATOM     30 O30  LIG A   1      19.863  23.266   8.298  1.00 20.00    -0.268 OA
ATOM     31 N31  LIG A   1      20.666  21.394   9.372  1.00 20.00    -0.277 NA
ATOM     32 C32  LIG A   1      20.329  20.499   8.259  1.00 20.00    +0.029 C 
ATOM     33 C33  LIG A   1      20.734  20.886   6.819  1.00 20.00    -0.034 C 
ATOM     34 C34  LIG A   1      22.139  21.442   6.510  1.00 20.00    -0.034 C 
ATOM     35 C35  LIG A   1      23.369  20.546   6.809  1.00 20.00    +0.085 C 
ATOM     36 C36  LIG A   1      24.645  21.152   6.229  1.00 20.00    +0.311 C 
ATOM     37 O37  LIG A   1      25.705  21.362   6.795  1.00 20.00    -0.252 OA
ATOM     38 O38  LIG A   1      24.547  21.407   4.905  1.00 20.00    -0.481 OA
ATOM     39 C39  LIG A   1      20.554  20.983  10.713  1.00 20.00    +0.246 C 
ATOM     40 O40  LIG A   1      20.595  21.770  11.667  1.00 20.00    -0.273 OA
ATOM     41 C41  LIG A   1      20.321  19.471  11.030  1.00 20.00    +0.088 C 
ATOM     42 N42  LIG A   1      18.859  19.292  11.231  1.00 20.00    -0.320 NA
ATOM     43 O43  LIG A   1      19.110  26.979  12.902  1.00 20.00    -0.251 OA
ATOM     44 C44  LIG A   1      19.161  25.780  12.678  1.00 20.00    +0.317 C 
ATOM     45 O45  LIG A   1      18.020  25.068  12.524  1.00 20.00    -0.480 OA
ATOM     46 C46  LIG A   1      20.421  24.926  12.634  1.00 20.00    +0.094 C 
ATOM     47 N47  LIG A   1      20.253  23.791  11.706  1.00 20.00    -0.306 NA
ATOM     48 C48  LIG A   1      21.356  22.834  11.837  1.00 20.00    +0.005 C 
ATOM     49 C49  LIG A   1      21.217  21.657  10.860  1.00 20.00    +0.003 C 
ATOM     50 S50  LIG A   1      21.283  22.197   9.123  1.00 20.00    -0.178 SA
ATOM     51 H51  LIG A   1      19.740  17.289  12.689  1.00 20.00    +0.023 H 
ATOM     52 H52  LIG A   1      21.163  16.862  11.725  1.00 20.00    +0.023 H 
ATOM     53 H53  LIG A   1      21.310  17.142  13.471  1.00 20.00    +0.023 H 
ATOM     54 H54  LIG A   1      20.701  19.512  13.178  1.00 20.00    +0.032 H 
ATOM     55 H55  LIG A   1      22.859  20.041  12.990  1.00 20.00    +0.032 H 
ATOM     56 H56  LIG A   1      23.168  18.344  12.775  1.00 20.00    +0.032 H 
ATOM     57 H57  LIG A   1      23.180  17.438  10.254  1.00 20.00    +0.063 H 
ATOM     58 H58  LIG A   1      23.483  18.055   7.903  1.00 20.00    +0.063 H 
ATOM     59 H59  LIG A   1      23.548  21.565  11.406  1.00 20.00    +0.067 H 
ATOM     60 H60  LIG A   1      23.710  24.089  10.129  1.00 20.00    +0.105 H 
ATOM     61 H61  LIG A   1      22.108  24.151  12.465  1.00 20.00    +0.063 H 
ATOM     62 H62  LIG A   1      21.377  26.098  13.750  1.00 20.00    +0.064 H 
ATOM     63 H63  LIG A   1      20.598  28.328  13.641  1.00 20.00    +0.160 HD
ATOM     64 H64  LIG A   1      20.001  29.789  11.680  1.00 20.00    +0.049 H 
ATOM     65 H65  LIG A   1      18.403  29.015  11.750  1.00 20.00    +0.049 H 
ATOM     66 H66  LIG A   1      18.560  31.206  12.954  1.00 20.00    +0.030 H 
ATOM     67 H67  LIG A   1      19.705  30.508  14.089  1.00 20.00    +0.030 H 
ATOM     68 H68  LIG A   1      16.823  29.579  13.586  1.00 20.00    +0.043 H 
ATOM     69 H69  LIG A   1      17.310  30.593  14.917  1.00 20.00    +0.043 H 
ATOM     70 H70  LIG A   1      18.374  27.897  14.421  1.00 20.00    +0.122 HD
ATOM     71 H71  LIG A   1      19.044  27.755  16.576  1.00 20.00    +0.043 H 
ATOM     72 H72  LIG A   1      19.621  29.303  16.002  1.00 20.00    +0.043 H 
ATOM     73 H73  LIG A   1      17.532  30.371  17.097  1.00 20.00    +0.028 H 
ATOM     74 H74  LIG A   1      18.748  29.695  18.155  1.00 20.00    +0.028 H 
ATOM     75 H75  LIG A   1      16.586  29.136  18.997  1.00 20.00    +0.028 H 
ATOM     76 H76  LIG A   1      17.426  27.665  18.531  1.00 20.00    +0.028 H 
ATOM     77 H77  LIG A   1      15.324  29.029  16.758  1.00 20.00    +0.043 H 
ATOM     78 H78  LIG A   1      16.047  27.427  16.512  1.00 20.00    +0.043 H 
ATOM     79 H79  LIG A   1      13.928  27.278  17.514  1.00 20.00    +0.118 HD
ATOM     80 H80  LIG A   1      14.363  28.226  18.769  1.00 20.00    +0.118 HD
ATOM     81 H81  LIG A   1      19.340  27.619  10.275  1.00 20.00    +0.064 H 
ATOM     82 H82  LIG A   1      20.086  25.703   8.990  1.00 20.00    +0.063 H 
ATOM     83 H83  LIG A   1      20.769  19.519   8.439  1.00 20.00    +0.050 H 
ATOM     84 H84  LIG A   1      19.241  20.352   8.287  1.00 20.00    +0.050 H 
ATOM     85 H85  LIG A   1      20.009  21.623   6.448  1.00 20.00    +0.029 H 
ATOM     86 H86  LIG A   1      20.576  20.001   6.189  1.00 20.00    +0.029 H 
ATOM     87 H87  LIG A   1      22.134  21.648   5.430  1.00 20.00    +0.028 H 
ATOM     88 H88  LIG A   1      22.255  22.432   6.954  1.00 20.00    +0.028 H 
ATOM     89 H89  LIG A   1      23.226  19.608   6.255  1.00 20.00    +0.047 H 
ATOM     90 H90  LIG A   1      25.429  21.773   4.678  1.00 20.00    +0.296 HD
ATOM     91 H91  LIG A   1      20.605  18.825  10.204  1.00 20.00    +0.057 H 
ATOM     92 H92  LIG A   1      18.584  19.846  12.047  1.00 20.00    +0.119 HD
ATOM     93 H93  LIG A   1      18.347  19.704  10.449  1.00 20.00    +0.119 HD
ATOM     94 H94  LIG A   1      17.317  25.750  12.572  1.00 20.00    +0.296 HD
ATOM     95 H95  LIG A   1      21.247  25.557  12.290  1.00 20.00    +0.055 H 
ATOM     96 H96  LIG A   1      20.617  24.583  13.655  1.00 20.00    +0.055 H 
ATOM     97 H97  LIG A   1      19.359  23.340  11.918  1.00 20.00    +0.123 HD
ATOM     98 H98  LIG A   1      22.315  23.338  11.668  1.00 20.00    +0.044 H 
ATOM     99 H99  LIG A   1      21.373  22.431  12.857  1.00 20.00    +0.044 H 
ATOM    100 H100 LIG A   1      22.024  20.937  11.026  1.00 20.00    +0.039 H 
ATOM    101 H101 LIG A   1      20.268  21.137  11.024  1.00 20.00    +0.039 H 
ATOM    102 H102 LIG A   1      20.464  23.249   9.291  1.00 20.00    +0.102 HD
ENDROOT
TORSDOF 0
                                                                                                         
ENDMDL
MODEL 8
REMARK VINA RESULT:   -10.310      3.137      9.367
REMARK INTER + INTRA:         -10.310
REMARK INTER:                 -10.310
REMARK INTRA:                   0.000
REMARK UNBOUND:                 0.000
ROOT
ATOM      1 C1   LIG A   1      22.439  23.292  14.980  1.00 20.00    -0.060 C 
ATOM      2 C2   LIG A   1      21.765  22.475  13.861  1.00 20.00    -0.016 C 
ATOM      3 C3   LIG A   1      20.471  23.232  13.400  1.00 20.00    -0.023 C 
ATOM      4 C4   LIG A   1      20.566  23.873  12.040  1.00 20.00    -0.044 A 
ATOM      5 C5   LIG A   1      21.379  24.987  11.823  1.00 20.00    -0.058 A 
ATOM      6 C6   LIG A   1      21.791  25.298  10.529  1.00 20.00    -0.054 A 
ATOM      7 C7   LIG A   1      21.425  24.476   9.446  1.00 20.00    +0.009 A 
ATOM      8 C8   LIG A   1      20.481  23.457   9.661  1.00 20.00    +0.130 A 
ATOM      9 C9   LIG A   1      19.999  23.209  10.947  1.00 20.00    -0.016 A 
ATOM     10 O10  LIG A   1      20.141  22.647   8.599  1.00 20.00    -0.464 OA
ATOM     11 C11  LIG A   1      19.895  21.310   8.831  1.00 20.00    +0.104 C 
ATOM     12 C12  LIG A   1      20.777  20.332   9.134  1.00 20.00    +0.082 C 
ATOM     13 C13  LIG A   1      20.281  18.939   9.175  1.00 20.00    -0.010 A 
ATOM     14 C14  LIG A   1      19.282  18.566  10.080  1.00 20.00    -0.052 A 
ATOM     15 C15  LIG A   1      18.805  17.250  10.114  1.00 20.00    -0.038 A 
ATOM     16 C16  LIG A   1      19.292  16.272   9.237  1.00 20.00    +0.034 A 
ATOM     17 N17  LIG A   1      18.819  14.964   9.383  1.00 20.00    -0.385 NA
ATOM     18 C18  LIG A   1      19.134  13.950   8.381  1.00 20.00    +0.016 C 
ATOM     19 C19  LIG A   1      18.535  12.596   8.780  1.00 20.00    -0.023 C 
ATOM     20 C20  LIG A   1      19.232  11.938   9.980  1.00 20.00    -0.003 C 
ATOM     21 N21  LIG A   1      19.139  12.683  11.239  1.00 20.00    -0.317 NA
ATOM     22 C22  LIG A   1      17.833  12.608  11.894  1.00 20.00    -0.005 C 
ATOM     23 C23  LIG A   1      17.540  11.272  12.587  1.00 20.00    -0.039 C 
ATOM     24 C24  LIG A   1      18.323  11.016  13.881  1.00 20.00    -0.040 C 
ATOM     25 C25  LIG A   1      19.835  10.906  13.702  1.00 20.00    -0.008 C 
ATOM     26 N26  LIG A   1      20.452  10.441  14.945  1.00 20.00    -0.330 NA
ATOM     27 C27  LIG A   1      20.321  16.642   8.366  1.00 20.00    -0.038 A 
ATOM     28 C28  LIG A   1      20.798  17.960   8.323  1.00 20.00    -0.052 A 
ATOM     29 C29  LIG A   1      22.248  20.617   9.272  1.00 20.00    +0.264 C 
ATOM     30 O30  LIG A   1      23.057  20.075   8.518  1.00 20.00    -0.268 OA
ATOM     31 N31  LIG A   1      22.626  21.519  10.259  1.00 20.00    -0.277 NA
ATOM     32 C32  LIG A   1      23.793  22.361   9.970  1.00 20.00    +0.029 C 
ATOM     33 C33  LIG A   1      24.051  22.836   8.522  1.00 20.00    -0.034 C 
ATOM     34 C34  LIG A   1      22.905  23.380   7.647  1.00 20.00    -0.034 C 
ATOM     35 C35  LIG A   1      22.153  24.651   8.121  1.00 20.00    +0.085 C 
ATOM     36 C36  LIG A   1      21.222  25.179   7.031  1.00 20.00    +0.311 C 
ATOM     37 O37  LIG A   1      20.037  25.455   7.121  1.00 20.00    -0.252 OA
ATOM     38 O38  LIG A   1      21.863  25.409   5.864  1.00 20.00    -0.481 OA
ATOM     39 C39  LIG A   1      22.199  21.272  11.577  1.00 20.00    +0.246 C 
ATOM     40 O40  LIG A   1      21.383  20.388  11.868  1.00 20.00    -0.273 OA
ATOM     41 C41  LIG A   1      22.808  22.110  12.745  1.00 20.00    +0.088 C 
ATOM     42 N42  LIG A   1      23.907  21.300  13.333  1.00 20.00    -0.320 NA
ATOM     43 O43  LIG A   1      19.886  15.311  10.185  1.00 20.00    -0.251 OA
ATOM     44 C44  LIG A   1      20.425  16.285  10.685  1.00 20.00    +0.317 C 
ATOM     45 O45  LIG A   1      21.661  16.175  11.227  1.00 20.00    -0.480 OA
ATOM     46 C46  LIG A   1      19.805  17.665  10.859  1.00 20.00    +0.094 C 
ATOM     47 N47  LIG A   1      20.842  18.714  10.816  1.00 20.00    -0.306 NA
ATOM     48 C48  LIG A   1      20.296  20.013  11.222  1.00 20.00    +0.005 C 
ATOM     49 C49  LIG A   1      21.351  21.128  11.158  1.00 20.00    +0.003 C 
ATOM     50 S50  LIG A   1      21.962  21.396   9.464  1.00 20.00    -0.178 SA
ATOM     51 H51  LIG A   1      23.273  22.747  15.434  1.00 20.00    +0.023 H 
ATOM     52 H52  LIG A   1      22.823  24.244  14.602  1.00 20.00    +0.023 H 
ATOM     53 H53  LIG A   1      21.725  23.508  15.784  1.00 20.00    +0.023 H 
ATOM     54 H54  LIG A   1      21.421  21.541  14.330  1.00 20.00    +0.032 H 
ATOM     55 H55  LIG A   1      19.643  22.509  13.397  1.00 20.00    +0.032 H 
ATOM     56 H56  LIG A   1      20.171  23.993  14.131  1.00 20.00    +0.032 H 
ATOM     57 H57  LIG A   1      21.779  25.551  12.661  1.00 20.00    +0.063 H 
ATOM     58 H58  LIG A   1      22.484  26.125  10.387  1.00 20.00    +0.063 H 
ATOM     59 H59  LIG A   1      19.312  22.384  11.121  1.00 20.00    +0.067 H 
ATOM     60 H60  LIG A   1      18.846  21.116   8.630  1.00 20.00    +0.105 H 
ATOM     61 H61  LIG A   1      18.888  19.286  10.794  1.00 20.00    +0.063 H 
ATOM     62 H62  LIG A   1      18.051  16.990  10.853  1.00 20.00    +0.064 H 
ATOM     63 H63  LIG A   1      17.841  14.959   9.662  1.00 20.00    +0.160 HD
ATOM     64 H64  LIG A   1      18.717  14.249   7.412  1.00 20.00    +0.049 H 
ATOM     65 H65  LIG A   1      20.219  13.833   8.268  1.00 20.00    +0.049 H 
ATOM     66 H66  LIG A   1      18.641  11.917   7.925  1.00 20.00    +0.030 H 
ATOM     67 H67  LIG A   1      17.459  12.696   8.964  1.00 20.00    +0.030 H 
ATOM     68 H68  LIG A   1      20.299  11.833   9.744  1.00 20.00    +0.043 H 
ATOM     69 H69  LIG A   1      18.860  10.916  10.103  1.00 20.00    +0.043 H 
ATOM     70 H70  LIG A   1      19.335  13.670  11.020  1.00 20.00    +0.122 HD
ATOM     71 H71  LIG A   1      17.791  13.402  12.650  1.00 20.00    +0.043 H 
ATOM     72 H72  LIG A   1      17.031  12.833  11.182  1.00 20.00    +0.043 H 
ATOM     73 H73  LIG A   1      17.681  10.431  11.899  1.00 20.00    +0.028 H 
ATOM     74 H74  LIG A   1      16.474  11.264  12.849  1.00 20.00    +0.028 H 
ATOM     75 H75  LIG A   1      17.939  10.083  14.316  1.00 20.00    +0.028 H 
ATOM     76 H76  LIG A   1      18.096  11.809  14.605  1.00 20.00    +0.028 H 
ATOM     77 H77  LIG A   1      20.079  10.208  12.894  1.00 20.00    +0.043 H 
ATOM     78 H78  LIG A   1      20.267  11.880  13.458  1.00 20.00    +0.043 H 
ATOM     79 H79  LIG A   1      21.460  10.371  14.806  1.00 20.00    +0.118 HD
ATOM     80 H80  LIG A   1      20.125   9.500  15.154  1.00 20.00    +0.118 HD
ATOM     81 H81  LIG A   1      20.778  15.922   7.697  1.00 20.00    +0.064 H 
ATOM     82 H82  LIG A   1      21.590  18.204   7.616  1.00 20.00    +0.063 H 
ATOM     83 H83  LIG A   1      23.744  23.265  10.575  1.00 20.00    +0.050 H 
ATOM     84 H84  LIG A   1      24.676  21.811  10.319  1.00 20.00    +0.050 H 
ATOM     85 H85  LIG A   1      24.512  22.007   7.969  1.00 20.00    +0.029 H 
ATOM     86 H86  LIG A   1      24.834  23.605   8.568  1.00 20.00    +0.029 H 
ATOM     87 H87  LIG A   1      23.371  23.614   6.678  1.00 20.00    +0.028 H 
ATOM     88 H88  LIG A   1      22.208  22.577   7.403  1.00 20.00    +0.028 H 
ATOM     89 H89  LIG A   1      22.906  25.440   8.254  1.00 20.00    +0.047 H 
ATOM     90 H90  LIG A   1      21.153  25.749   5.278  1.00 20.00    +0.296 HD
ATOM     91 H91  LIG A   1      23.254  23.039  12.401  1.00 20.00    +0.057 H 
ATOM     92 H92  LIG A   1      23.495  20.446  13.719  1.00 20.00    +0.119 HD
ATOM     93 H93  LIG A   1      24.534  20.977  12.595  1.00 20.00    +0.119 HD
ATOM     94 H94  LIG A   1      21.914  15.248  11.031  1.00 20.00    +0.296 HD
ATOM     95 H95  LIG A   1      19.094  17.823  10.041  1.00 20.00    +0.055 H 
ATOM     96 H96  LIG A   1      19.275  17.665  11.817  1.00 20.00    +0.055 H 
ATOM     97 H97  LIG A   1      21.602  18.433  11.442  1.00 20.00    +0.123 HD
ATOM     98 H98  LIG A   1      19.443  20.280  10.586  1.00 20.00    +0.044 H 
ATOM     99 H99  LIG A   1      19.927  19.950  12.253  1.00 20.00    +0.044 H 
ATOM    100 H100 LIG A   1      20.925  22.067  11.521  1.00 20.00    +0.039 H 
ATOM    101 H101 LIG A   1      22.205  20.880  11.797  1.00 20.00    +0.039 H 
ATOM    102 H102 LIG A   1      22.102  20.091   9.176  1.00 20.00    +0.102 HD
ENDROOT
TORSDOF 0
                                                                                                         
ENDMDL
MODEL 9
REMARK VINA RESULT:   -10.249      5.220      8.249
REMARK INTER + INTRA:         -10.249
REMARK INTER:                 -10.249
REMARK INTRA:                   0.000
REMARK UNBOUND:                 0.000
ROOT
ATOM      1 C1   LIG A   1      19.950  20.765   7.170  1.00 20.00    -0.060 C 
ATOM      2 C2   LIG A   1      19.980  21.269   8.626  1.00 20.00    -0.016 C 
ATOM      3 C3   LIG A   1      19.799  20.041   9.583  1.00 20.00    -0.023 C 
ATOM      4 C4   LIG A   1      21.040  19.641  10.338  1.00 20.00    -0.044 A 
ATOM      5 C5   LIG A   1      22.126  19.058   9.682  1.00 20.00    -0.058 A 
ATOM      6 C6   LIG A   1      23.388  19.091  10.274  1.00 20.00    -0.054 A 
ATOM      7 C7   LIG A   1      23.580  19.740  11.508  1.00 20.00    +0.009 A 
ATOM      8 C8   LIG A   1      22.452  20.178  12.224  1.00 20.00    +0.130 A 
ATOM      9 C9   LIG A   1      21.179  20.058  11.666  1.00 20.00    -0.016 A 
ATOM     10 O10  LIG A   1      22.651  20.827  13.424  1.00 20.00    -0.464 OA
ATOM     11 C11  LIG A   1      21.815  21.869  13.766  1.00 20.00    +0.104 C 
ATOM     12 C12  LIG A   1      21.764  23.114  13.244  1.00 20.00    +0.082 C 
ATOM     13 C13  LIG A   1      20.883  24.105  13.898  1.00 20.00    -0.010 A 
ATOM     14 C14  LIG A   1      19.504  23.888  13.978  1.00 20.00    -0.052 A 
ATOM     15 C15  LIG A   1      18.669  24.821  14.606  1.00 20.00    -0.038 A 
ATOM     16 C16  LIG A   1      19.183  25.987  15.189  1.00 20.00    +0.034 A 
ATOM     17 N17  LIG A   1      18.279  26.905  15.731  1.00 20.00    -0.385 NA
ATOM     18 C18  LIG A   1      18.758  28.034  16.523  1.00 20.00    +0.016 C 
ATOM     19 C19  LIG A   1      17.585  28.911  16.974  1.00 20.00    -0.023 C 
ATOM     20 C20  LIG A   1      16.932  29.709  15.836  1.00 20.00    -0.003 C 
ATOM     21 N21  LIG A   1      16.307  28.898  14.787  1.00 20.00    -0.317 NA
ATOM     22 C22  LIG A   1      15.028  28.298  15.164  1.00 20.00    -0.005 C 
ATOM     23 C23  LIG A   1      13.847  29.276  15.202  1.00 20.00    -0.039 C 
ATOM     24 C24  LIG A   1      13.341  29.752  13.835  1.00 20.00    -0.040 C 
ATOM     25 C25  LIG A   1      14.349  30.569  13.031  1.00 20.00    -0.008 C 
ATOM     26 N26  LIG A   1      13.694  31.155  11.861  1.00 20.00    -0.330 NA
ATOM     27 C27  LIG A   1      20.557  26.217  15.066  1.00 20.00    -0.038 A 
ATOM     28 C28  LIG A   1      21.398  25.284  14.445  1.00 20.00    -0.052 A 
ATOM     29 C29  LIG A   1      22.685  23.537  12.131  1.00 20.00    +0.264 C 
ATOM     30 O30  LIG A   1      23.484  24.457  12.304  1.00 20.00    -0.268 OA
ATOM     31 N31  LIG A   1      22.597  22.830  10.937  1.00 20.00    -0.277 NA
ATOM     32 C32  LIG A   1      23.842  22.658  10.179  1.00 20.00    +0.029 C 
ATOM     33 C33  LIG A   1      25.179  22.489  10.937  1.00 20.00    -0.034 C 
ATOM     34 C34  LIG A   1      25.288  21.554  12.157  1.00 20.00    -0.034 C 
ATOM     35 C35  LIG A   1      25.002  20.042  11.957  1.00 20.00    +0.085 C 
ATOM     36 C36  LIG A   1      25.384  19.240  13.200  1.00 20.00    +0.311 C 
ATOM     37 O37  LIG A   1      24.704  18.437  13.817  1.00 20.00    -0.252 OA
ATOM     38 O38  LIG A   1      26.667  19.440  13.575  1.00 20.00    -0.481 OA
ATOM     39 C39  LIG A   1      21.336  22.733  10.320  1.00 20.00    +0.246 C 
ATOM     40 O40  LIG A   1      20.288  23.105  10.863  1.00 20.00    -0.273 OA
ATOM     41 C41  LIG A   1      21.240  22.175   8.865  1.00 20.00    +0.088 C 
ATOM     42 N42  LIG A   1      21.193  23.349   7.954  1.00 20.00    -0.320 NA
ATOM     43 O43  LIG A   1      18.521  27.026  14.379  1.00 20.00    -0.251 OA
ATOM     44 C44  LIG A   1      18.893  26.375  13.416  1.00 20.00    +0.317 C 
ATOM     45 O45  LIG A   1      19.238  27.000  12.265  1.00 20.00    -0.480 OA
ATOM     46 C46  LIG A   1      18.937  24.856  13.320  1.00 20.00    +0.094 C 
ATOM     47 N47  LIG A   1      20.016  24.419  12.413  1.00 20.00    -0.306 NA
ATOM     48 C48  LIG A   1      19.915  22.985  12.123  1.00 20.00    +0.005 C 
ATOM     49 C49  LIG A   1      21.045  22.502  11.202  1.00 20.00    +0.003 C 
ATOM     50 S50  LIG A   1      22.684  22.700  11.968  1.00 20.00    -0.178 SA
ATOM     51 H51  LIG A   1      19.936  21.593   6.454  1.00 20.00    +0.023 H 
ATOM     52 H52  LIG A   1      20.819  20.139   6.947  1.00 20.00    +0.023 H 
ATOM     53 H53  LIG A   1      19.046  20.171   6.985  1.00 20.00    +0.023 H 
ATOM     54 H54  LIG A   1      19.080  21.889   8.752  1.00 20.00    +0.032 H 
ATOM     55 H55  LIG A   1      19.008  20.291  10.305  1.00 20.00    +0.032 H 
ATOM     56 H56  LIG A   1      19.414  19.166   9.044  1.00 20.00    +0.032 H 
ATOM     57 H57  LIG A   1      22.021  18.674   8.671  1.00 20.00    +0.063 H 
ATOM     58 H58  LIG A   1      24.235  18.699   9.716  1.00 20.00    +0.063 H 
ATOM     59 H59  LIG A   1      20.313  20.449  12.196  1.00 20.00    +0.067 H 
ATOM     60 H60  LIG A   1      21.232  21.569  14.631  1.00 20.00    +0.105 H 
ATOM     61 H61  LIG A   1      19.057  23.007  13.522  1.00 20.00    +0.063 H 
ATOM     62 H62  LIG A   1      17.598  24.634  14.620  1.00 20.00    +0.064 H 
ATOM     63 H63  LIG A   1      17.485  26.429  16.154  1.00 20.00    +0.160 HD
ATOM     64 H64  LIG A   1      19.283  27.662  17.411  1.00 20.00    +0.049 H 
ATOM     65 H65  LIG A   1      19.455  28.652  15.945  1.00 20.00    +0.049 H 
ATOM     66 H66  LIG A   1      17.967  29.634  17.706  1.00 20.00    +0.030 H 
ATOM     67 H67  LIG A   1      16.837  28.305  17.500  1.00 20.00    +0.030 H 
ATOM     68 H68  LIG A   1      17.707  30.319  15.355  1.00 20.00    +0.043 H 
ATOM     69 H69  LIG A   1      16.217  30.424  16.254  1.00 20.00    +0.043 H 
ATOM     70 H70  LIG A   1      16.965  28.140  14.559  1.00 20.00    +0.122 HD
ATOM     71 H71  LIG A   1      14.797  27.512  14.434  1.00 20.00    +0.043 H 
ATOM     72 H72  LIG A   1      15.111  27.789  16.131  1.00 20.00    +0.043 H 
ATOM     73 H73  LIG A   1      14.074  30.143  15.833  1.00 20.00    +0.028 H 
ATOM     74 H74  LIG A   1      13.011  28.763  15.695  1.00 20.00    +0.028 H 
ATOM     75 H75  LIG A   1      12.442  30.355  14.012  1.00 20.00    +0.028 H 
ATOM     76 H76  LIG A   1      13.019  28.884  13.246  1.00 20.00    +0.028 H 
ATOM     77 H77  LIG A   1      14.777  31.369  13.644  1.00 20.00    +0.043 H 
ATOM     78 H78  LIG A   1      15.165  29.934  12.674  1.00 20.00    +0.043 H 
ATOM     79 H79  LIG A   1      14.381  31.699  11.337  1.00 20.00    +0.118 HD
ATOM     80 H80  LIG A   1      12.980  31.814  12.166  1.00 20.00    +0.118 HD
ATOM     81 H81  LIG A   1      21.012  27.124  15.450  1.00 20.00    +0.064 H 
ATOM     82 H82  LIG A   1      22.464  25.500  14.387  1.00 20.00    +0.063 H 
ATOM     83 H83  LIG A   1      23.754  21.786   9.534  1.00 20.00    +0.050 H 
ATOM     84 H84  LIG A   1      23.929  23.524   9.510  1.00 20.00    +0.050 H 
ATOM     85 H85  LIG A   1      25.513  23.483  11.263  1.00 20.00    +0.029 H 
ATOM     86 H86  LIG A   1      25.930  22.173  10.202  1.00 20.00    +0.029 H 
ATOM     87 H87  LIG A   1      26.329  21.650  12.500  1.00 20.00    +0.028 H 
ATOM     88 H88  LIG A   1      24.711  21.957  12.991  1.00 20.00    +0.028 H 
ATOM     89 H89  LIG A   1      25.684  19.687  11.172  1.00 20.00    +0.047 H 
ATOM     90 H90  LIG A   1      26.766  18.861  14.362  1.00 20.00    +0.296 HD
ATOM     91 H91  LIG A   1      22.115  21.596   8.584  1.00 20.00    +0.057 H 
ATOM     92 H92  LIG A   1      20.340  23.874   8.162  1.00 20.00    +0.119 HD
ATOM     93 H93  LIG A   1      21.956  23.991   8.174  1.00 20.00    +0.119 HD
ATOM     94 H94  LIG A   1      19.163  27.951  12.490  1.00 20.00    +0.296 HD
ATOM     95 H95  LIG A   1      19.123  24.458  14.323  1.00 20.00    +0.055 H 
ATOM     96 H96  LIG A   1      17.956  24.524  12.964  1.00 20.00    +0.055 H 
ATOM     97 H97  LIG A   1      19.944  24.966  11.550  1.00 20.00    +0.123 HD
ATOM     98 H98  LIG A   1      19.932  22.410  13.056  1.00 20.00    +0.044 H 
ATOM     99 H99  LIG A   1      18.958  22.778  11.628  1.00 20.00    +0.044 H 
ATOM    100 H100 LIG A   1      20.904  21.444  10.962  1.00 20.00    +0.039 H 
ATOM    101 H101 LIG A   1      21.033  23.061  10.261  1.00 20.00    +0.039 H 
ATOM    102 H102 LIG A   1      22.454  23.939  12.433  1.00 20.00    +0.102 HD
ENDROOT
TORSDOF 0
                                                                                                         
ENDMDL
