ROOT
ATOM      1 N1   LIG A   1      -7.568  -1.537  -3.201  1.00 20.00    -0.289 NA
ATOM      2 C2   LIG A   1      -8.629  -1.073  -2.627  1.00 20.00    +0.092 C 
ATOM      3 N3   LIG A   1      -8.944   0.253  -2.680  1.00 20.00    -0.388 NA
ATOM      4 C4   LIG A   1      -9.529  -2.035  -1.880  1.00 20.00    +0.022 C 
ATOM      5 C5   LIG A   1      -9.376  -1.911  -0.364  1.00 20.00    +0.022 C 
ATOM      6 N6   LIG A   1      -8.016  -2.243   0.077  1.00 20.00    -0.384 NA
ATOM      7 C7   LIG A   1      -7.199  -1.194   0.525  1.00 20.00    +0.038 A 
ATOM      8 C8   LIG A   1      -7.649  -0.231   1.440  1.00 20.00    -0.038 A 
ATOM      9 C9   LIG A   1      -6.802   0.786   1.892  1.00 20.00    -0.045 A 
ATOM     10 C10  LIG A   1      -5.481   0.829   1.447  1.00 20.00    +0.065 A 
ATOM     11 C11  LIG A   1      -4.564   1.886   1.897  1.00 20.00    +0.193 C 
ATOM     12 O12  LIG A   1      -4.919   2.787   2.645  1.00 20.00    -0.289 OA
ATOM     13 C13  LIG A   1      -3.182   1.815   1.395  1.00 20.00    +0.030 C 
ATOM     14 C14  LIG A   1      -2.837   0.822   0.562  1.00 20.00    +0.138 C 
ATOM     15 C15  LIG A   1      -1.469   0.702   0.019  1.00 20.00    +0.017 A 
ATOM     16 C16  LIG A   1      -1.271   0.332  -1.315  1.00 20.00    -0.049 A 
ATOM     17 C17  LIG A   1       0.022   0.198  -1.837  1.00 20.00    -0.038 A 
ATOM     18 C18  LIG A   1       1.159   0.443  -1.055  1.00 20.00    +0.034 A 
ATOM     19 N19  LIG A   1       2.411   0.217  -1.623  1.00 20.00    -0.385 NA
ATOM     20 C20  LIG A   1       3.646   0.685  -0.995  1.00 20.00    +0.016 C 
ATOM     21 C21  LIG A   1       4.246  -0.418  -0.122  1.00 20.00    -0.023 C 
ATOM     22 C22  LIG A   1       5.510   0.033   0.614  1.00 20.00    -0.003 C 
ATOM     23 N23  LIG A   1       6.581   0.354  -0.327  1.00 20.00    -0.317 NA
ATOM     24 C24  LIG A   1       7.788   0.869   0.324  1.00 20.00    -0.005 C 
ATOM     25 C25  LIG A   1       8.617  -0.223   1.007  1.00 20.00    -0.039 C 
ATOM     26 C26  LIG A   1       9.874   0.315   1.701  1.00 20.00    -0.040 C 
ATOM     27 C27  LIG A   1      10.902   0.897   0.730  1.00 20.00    -0.008 C 
ATOM     28 N28  LIG A   1      12.114   1.298   1.437  1.00 20.00    -0.330 NA
ATOM     29 C29  LIG A   1       0.954   0.768   0.288  1.00 20.00    -0.038 A 
ATOM     30 C30  LIG A   1      -0.338   0.906   0.818  1.00 20.00    -0.049 A 
ATOM     31 O31  LIG A   1      -3.712  -0.157   0.112  1.00 20.00    -0.456 OA
ATOM     32 C32  LIG A   1      -5.005  -0.138   0.571  1.00 20.00    +0.140 A 
ATOM     33 C33  LIG A   1      -5.857  -1.150   0.121  1.00 20.00    +0.005 A 
ATOM     34 O34  LIG A   1       3.355   1.245  -0.386  1.00 20.00    -0.251 OA
ATOM     35 C35  LIG A   1       2.288   1.048   0.172  1.00 20.00    +0.317 C 
ATOM     36 O36  LIG A   1       1.803   1.953   1.054  1.00 20.00    -0.480 OA
ATOM     37 C37  LIG A   1       1.428  -0.203   0.055  1.00 20.00    +0.094 C 
ATOM     38 N38  LIG A   1      -0.003   0.132   0.190  1.00 20.00    -0.306 NA
ATOM     39 C39  LIG A   1      -0.817  -1.080   0.333  1.00 20.00    +0.005 C 
ATOM     40 C40  LIG A   1      -2.315  -0.760   0.440  1.00 20.00    +0.003 C 
ATOM     41 S41  LIG A   1      -2.956   0.030  -1.069  1.00 20.00    -0.178 SA
ATOM     42 H42  LIG A   1      -7.084  -0.778  -3.685  1.00 20.00    +0.189 HD
ATOM     43 H43  LIG A   1      -8.173   0.885  -2.859  1.00 20.00    +0.157 HD
ATOM     44 H44  LIG A   1      -9.569   0.607  -1.963  1.00 20.00    +0.157 HD
ATOM     45 H45  LIG A   1      -9.303  -3.059  -2.202  1.00 20.00    +0.037 H 
ATOM     46 H46  LIG A   1     -10.568  -1.824  -2.161  1.00 20.00    +0.037 H 
ATOM     47 H47  LIG A   1      -9.698  -0.912  -0.044  1.00 20.00    +0.049 H 
ATOM     48 H48  LIG A   1     -10.059  -2.626   0.111  1.00 20.00    +0.049 H 
ATOM     49 H49  LIG A   1      -7.532  -2.803  -0.629  1.00 20.00    +0.160 HD
ATOM     50 H50  LIG A   1      -8.660  -0.278   1.835  1.00 20.00    +0.064 H 
ATOM     51 H51  LIG A   1      -7.170   1.526   2.599  1.00 20.00    +0.063 H 
ATOM     52 H52  LIG A   1      -2.506   2.592   1.726  1.00 20.00    +0.070 H 
ATOM     53 H53  LIG A   1      -2.120   0.137  -1.967  1.00 20.00    +0.063 H 
ATOM     54 H54  LIG A   1       0.133  -0.114  -2.873  1.00 20.00    +0.064 H 
ATOM     55 H55  LIG A   1       2.410   0.345  -2.632  1.00 20.00    +0.160 HD
ATOM     56 H56  LIG A   1       4.350   0.932  -1.798  1.00 20.00    +0.049 H 
ATOM     57 H57  LIG A   1       3.490   1.613  -0.431  1.00 20.00    +0.049 H 
ATOM     58 H58  LIG A   1       4.465  -1.300  -0.739  1.00 20.00    +0.030 H 
ATOM     59 H59  LIG A   1       3.513  -0.748   0.625  1.00 20.00    +0.030 H 
ATOM     60 H60  LIG A   1       5.820  -0.774   1.287  1.00 20.00    +0.043 H 
ATOM     61 H61  LIG A   1       5.272   0.908   1.231  1.00 20.00    +0.043 H 
ATOM     62 H62  LIG A   1       6.814  -0.470  -0.883  1.00 20.00    +0.122 HD
ATOM     63 H63  LIG A   1       8.389   1.339  -0.461  1.00 20.00    +0.043 H 
ATOM     64 H64  LIG A   1       7.532   1.666   1.033  1.00 20.00    +0.043 H 
ATOM     65 H65  LIG A   1       8.012  -0.728   1.769  1.00 20.00    +0.028 H 
ATOM     66 H66  LIG A   1       8.905  -0.989   0.276  1.00 20.00    +0.028 H 
ATOM     67 H67  LIG A   1      10.333  -0.513   2.259  1.00 20.00    +0.028 H 
ATOM     68 H68  LIG A   1       9.586   1.073   2.443  1.00 20.00    +0.028 H 
ATOM     69 H69  LIG A   1      10.498   1.776   0.217  1.00 20.00    +0.043 H 
ATOM     70 H70  LIG A   1      11.163   0.159  -0.036  1.00 20.00    +0.043 H 
ATOM     71 H71  LIG A   1      11.881   1.968   2.170  1.00 20.00    +0.118 HD
ATOM     72 H72  LIG A   1      12.519   0.492   1.912  1.00 20.00    +0.118 HD
ATOM     73 H73  LIG A   1       1.793   0.914   0.961  1.00 20.00    +0.064 H 
ATOM     74 H74  LIG A   1      -0.439   1.148   1.874  1.00 20.00    +0.063 H 
ATOM     75 H75  LIG A   1      -5.468  -1.901  -0.563  1.00 20.00    +0.068 H 
ATOM     76 H76  LIG A   1       2.457   2.683   1.014  1.00 20.00    +0.296 HD
ATOM     77 H77  LIG A   1       1.607  -0.649  -0.928  1.00 20.00    +0.055 H 
ATOM     78 H78  LIG A   1       1.752  -0.894   0.841  1.00 20.00    +0.055 H 
ATOM     79 H79  LIG A   1      -0.109   0.733   1.011  1.00 20.00    +0.123 HD
ATOM     80 H80  LIG A   1      -0.647  -1.754  -0.516  1.00 20.00    +0.044 H 
ATOM     81 H81  LIG A   1      -0.517  -1.617   1.242  1.00 20.00    +0.044 H 
ATOM     82 H82  LIG A   1      -2.882  -1.680   0.612  1.00 20.00    +0.039 H 
ATOM     83 H83  LIG A   1      -2.502  -0.090   1.286  1.00 20.00    +0.039 H 
ATOM     84 H84  LIG A   1      -1.941   0.902  -1.192  1.00 20.00    +0.102 HD
ENDROOT
TORSDOF 0
