MODEL 1
REMARK VINA RESULT:   -11.578      0.000      0.000
REMARK INTER + INTRA:         -11.578
REMARK INTER:                 -11.578
REMARK INTRA:                   0.000
REMARK UNBOUND:                 0.000
ROOT
ATOM      1 C1   LIG A   1      21.195  26.847  11.298  1.00 20.00    -0.044 C 
ATOM      2 C2   LIG A   1      21.192  25.386  11.837  1.00 20.00    +0.047 C 
ATOM      3 C3   LIG A   1      22.473  25.217  12.691  1.00 20.00    -0.044 C 
ATOM      4 C4   LIG A   1      19.943  25.280  12.765  1.00 20.00    -0.006 C 
ATOM      5 C5   LIG A   1      19.209  23.943  12.677  1.00 20.00    +0.058 C 
ATOM      6 O6   LIG A   1      18.477  23.717  13.891  1.00 20.00    -0.393 OA
ATOM      7 C7   LIG A   1      20.175  22.800  12.440  1.00 20.00    -0.006 C 
ATOM      8 C8   LIG A   1      20.908  22.968  11.083  1.00 20.00    +0.047 C 
ATOM      9 C9   LIG A   1      22.216  22.136  11.165  1.00 20.00    -0.044 C 
ATOM     10 C10  LIG A   1      20.021  22.323   9.983  1.00 20.00    -0.044 C 
ATOM     11 N11  LIG A   1      21.045  24.409  10.738  1.00 20.00    -0.144 NA
ATOM     12 O12  LIG A   1      22.058  24.595   9.739  1.00 20.00    -0.120 OA
ATOM     13 C13  LIG A   1      18.301  29.846   9.974  1.00 20.00    -0.060 C 
ATOM     14 C14  LIG A   1      19.200  28.674  10.417  1.00 20.00    -0.016 C 
ATOM     15 C15  LIG A   1      20.694  29.131  10.324  1.00 20.00    -0.023 C 
ATOM     16 C16  LIG A   1      21.368  29.354  11.653  1.00 20.00    -0.044 A 
ATOM     17 C17  LIG A   1      21.021  30.435  12.465  1.00 20.00    -0.058 A 
ATOM     18 C18  LIG A   1      21.324  30.401  13.826  1.00 20.00    -0.054 A 
ATOM     19 C19  LIG A   1      21.940  29.268  14.391  1.00 20.00    +0.009 A 
ATOM     20 C20  LIG A   1      22.419  28.260  13.536  1.00 20.00    +0.130 A 
ATOM     21 C21  LIG A   1      22.195  28.347  12.161  1.00 20.00    -0.016 A 
ATOM     22 O22  LIG A   1      23.001  27.146  14.100  1.00 20.00    -0.464 OA
ATOM     23 C23  LIG A   1      22.796  25.914  13.513  1.00 20.00    +0.104 C 
ATOM     24 C24  LIG A   1      21.671  25.165  13.501  1.00 20.00    +0.082 C 
ATOM     25 C25  LIG A   1      21.746  23.798  12.940  1.00 20.00    -0.010 A 
ATOM     26 C26  LIG A   1      22.155  23.591  11.618  1.00 20.00    -0.052 A 
ATOM     27 C27  LIG A   1      22.236  22.297  11.089  1.00 20.00    -0.038 A 
ATOM     28 C28  LIG A   1      21.921  21.170  11.859  1.00 20.00    +0.034 A 
ATOM     29 N29  LIG A   1      21.962  19.918  11.239  1.00 20.00    -0.385 NA
ATOM     30 C30  LIG A   1      21.781  18.700  12.023  1.00 20.00    +0.016 C 
ATOM     31 C31  LIG A   1      21.916  17.458  11.136  1.00 20.00    -0.023 C 
ATOM     32 C32  LIG A   1      20.767  17.270  10.133  1.00 20.00    -0.003 C 
ATOM     33 N33  LIG A   1      20.639  18.326   9.123  1.00 20.00    -0.317 NA
ATOM     34 C34  LIG A   1      21.661  18.293   8.076  1.00 20.00    -0.005 C 
ATOM     35 C35  LIG A   1      21.460  17.195   7.025  1.00 20.00    -0.039 C 
ATOM     36 C36  LIG A   1      20.334  17.451   6.017  1.00 20.00    -0.040 C 
ATOM     37 C37  LIG A   1      18.936  17.526   6.627  1.00 20.00    -0.008 C 
ATOM     38 N38  LIG A   1      17.932  17.569   5.564  1.00 20.00    -0.330 NA
ATOM     39 C39  LIG A   1      21.465  21.387  13.161  1.00 20.00    -0.038 A 
ATOM     40 C40  LIG A   1      21.394  22.679  13.702  1.00 20.00    -0.052 A 
ATOM     41 C41  LIG A   1      20.413  25.641  14.175  1.00 20.00    +0.264 C 
ATOM     42 O42  LIG A   1      19.944  25.008  15.122  1.00 20.00    -0.268 OA
ATOM     43 N43  LIG A   1      19.845  26.816  13.697  1.00 20.00    -0.277 NA
ATOM     44 C44  LIG A   1      19.166  27.666  14.685  1.00 20.00    +0.029 C 
ATOM     45 C45  LIG A   1      19.702  27.735  16.133  1.00 20.00    -0.034 C 
ATOM     46 C46  LIG A   1      21.210  27.870  16.424  1.00 20.00    -0.034 C 
ATOM     47 C47  LIG A   1      21.952  29.130  15.906  1.00 20.00    +0.085 C 
ATOM     48 C48  LIG A   1      23.371  29.203  16.469  1.00 20.00    +0.311 C 
ATOM     49 O49  LIG A   1      24.415  29.365  15.858  1.00 20.00    -0.252 OA
ATOM     50 O50  LIG A   1      23.403  29.138  17.819  1.00 20.00    -0.481 OA
ATOM     51 C51  LIG A   1      19.571  26.913  12.320  1.00 20.00    +0.246 C 
ATOM     52 O52  LIG A   1      19.950  26.071  11.497  1.00 20.00    -0.273 OA
ATOM     53 C53  LIG A   1      18.710  28.104  11.796  1.00 20.00    +0.088 C 
ATOM     54 N54  LIG A   1      17.316  27.605  11.662  1.00 20.00    -0.320 NA
ATOM     55 H55  LIG A   1      21.133  27.567  12.123  1.00 20.00    +0.025 H 
ATOM     56 H56  LIG A   1      20.337  27.030  10.639  1.00 20.00    +0.025 H 
ATOM     57 H57  LIG A   1      22.109  27.082  10.740  1.00 20.00    +0.025 H 
ATOM     58 H58  LIG A   1      23.380  25.258  12.080  1.00 20.00    +0.025 H 
ATOM     59 H59  LIG A   1      22.553  26.023  13.431  1.00 20.00    +0.025 H 
ATOM     60 H60  LIG A   1      22.486  24.280  13.251  1.00 20.00    +0.025 H 
ATOM     61 H61  LIG A   1      20.226  25.477  13.807  1.00 20.00    +0.031 H 
ATOM     62 H62  LIG A   1      19.206  26.059  12.523  1.00 20.00    +0.031 H 
ATOM     63 H63  LIG A   1      18.467  23.978  11.870  1.00 20.00    +0.060 H 
ATOM     64 H64  LIG A   1      17.898  24.490  13.994  1.00 20.00    +0.210 HD
ATOM     65 H65  LIG A   1      20.884  22.756  13.278  1.00 20.00    +0.031 H 
ATOM     66 H66  LIG A   1      19.636  21.843  12.482  1.00 20.00    +0.031 H 
ATOM     67 H67  LIG A   1      22.001  21.116  11.504  1.00 20.00    +0.025 H 
ATOM     68 H68  LIG A   1      22.711  22.046  10.191  1.00 20.00    +0.025 H 
ATOM     69 H69  LIG A   1      22.936  22.564  11.868  1.00 20.00    +0.025 H 
ATOM     70 H70  LIG A   1      19.803  21.274  10.216  1.00 20.00    +0.025 H 
ATOM     71 H71  LIG A   1      20.510  22.339   9.002  1.00 20.00    +0.025 H 
ATOM     72 H72  LIG A   1      19.060  22.842   9.882  1.00 20.00    +0.025 H 
ATOM     73 H73  LIG A   1      17.255  29.537   9.876  1.00 20.00    +0.023 H 
ATOM     74 H74  LIG A   1      18.344  30.675  10.688  1.00 20.00    +0.023 H 
ATOM     75 H75  LIG A   1      18.611  30.225   8.992  1.00 20.00    +0.023 H 
ATOM     76 H76  LIG A   1      19.071  27.893   9.652  1.00 20.00    +0.032 H 
ATOM     77 H77  LIG A   1      21.248  28.363   9.766  1.00 20.00    +0.032 H 
ATOM     78 H78  LIG A   1      20.796  30.041   9.719  1.00 20.00    +0.032 H 
ATOM     79 H79  LIG A   1      20.429  31.257  12.070  1.00 20.00    +0.063 H 
ATOM     80 H80  LIG A   1      20.978  31.219  14.455  1.00 20.00    +0.063 H 
ATOM     81 H81  LIG A   1      22.517  27.540  11.506  1.00 20.00    +0.067 H 
ATOM     82 H82  LIG A   1      23.743  25.557  13.119  1.00 20.00    +0.105 H 
ATOM     83 H83  LIG A   1      22.389  24.437  10.974  1.00 20.00    +0.063 H 
ATOM     84 H84  LIG A   1      22.530  22.179  10.050  1.00 20.00    +0.064 H 
ATOM     85 H85  LIG A   1      22.740  19.863  10.583  1.00 20.00    +0.160 HD
ATOM     86 H86  LIG A   1      22.542  18.651  12.812  1.00 20.00    +0.049 H 
ATOM     87 H87  LIG A   1      20.791  18.692  12.498  1.00 20.00    +0.049 H 
ATOM     88 H88  LIG A   1      21.930  16.577  11.790  1.00 20.00    +0.030 H 
ATOM     89 H89  LIG A   1      22.885  17.469  10.620  1.00 20.00    +0.030 H 
ATOM     90 H90  LIG A   1      19.824  17.239  10.691  1.00 20.00    +0.043 H 
ATOM     91 H91  LIG A   1      20.860  16.288   9.657  1.00 20.00    +0.043 H 
ATOM     92 H92  LIG A   1      20.707  19.226   9.618  1.00 20.00    +0.122 HD
ATOM     93 H93  LIG A   1      21.650  19.263   7.563  1.00 20.00    +0.043 H 
ATOM     94 H94  LIG A   1      22.661  18.204   8.517  1.00 20.00    +0.043 H 
ATOM     95 H95  LIG A   1      21.314  16.218   7.499  1.00 20.00    +0.028 H 
ATOM     96 H96  LIG A   1      22.395  17.111   6.455  1.00 20.00    +0.028 H 
ATOM     97 H97  LIG A   1      20.363  16.638   5.278  1.00 20.00    +0.028 H 
ATOM     98 H98  LIG A   1      20.546  18.376   5.464  1.00 20.00    +0.028 H 
ATOM     99 H99  LIG A   1      18.750  16.655   7.264  1.00 20.00    +0.043 H 
ATOM    100 H100 LIG A   1      18.826  18.430   7.232  1.00 20.00    +0.043 H 
ATOM    101 H101 LIG A   1      17.004  17.605   5.987  1.00 20.00    +0.118 HD
ATOM    102 H102 LIG A   1      17.968  16.705   5.026  1.00 20.00    +0.118 HD
ATOM    103 H103 LIG A   1      21.161  20.560  13.795  1.00 20.00    +0.064 H 
ATOM    104 H104 LIG A   1      21.054  22.794  14.728  1.00 20.00    +0.063 H 
ATOM    105 H105 LIG A   1      19.153  28.694  14.326  1.00 20.00    +0.050 H 
ATOM    106 H106 LIG A   1      18.118  27.342  14.713  1.00 20.00    +0.050 H 
ATOM    107 H107 LIG A   1      19.352  26.841  16.667  1.00 20.00    +0.029 H 
ATOM    108 H108 LIG A   1      19.188  28.571  16.628  1.00 20.00    +0.029 H 
ATOM    109 H109 LIG A   1      21.290  27.871  17.520  1.00 20.00    +0.028 H 
ATOM    110 H110 LIG A   1      21.732  26.957  16.133  1.00 20.00    +0.028 H 
ATOM    111 H111 LIG A   1      21.439  30.004  16.330  1.00 20.00    +0.047 H 
ATOM    112 H112 LIG A   1      24.359  29.205  18.027  1.00 20.00    +0.296 HD
ATOM    113 H113 LIG A   1      18.678  28.933  12.499  1.00 20.00    +0.057 H 
ATOM    114 H114 LIG A   1      17.305  26.904  10.914  1.00 20.00    +0.119 HD
ATOM    115 H115 LIG A   1      17.047  27.089  12.501  1.00 20.00    +0.119 HD
ENDROOT
TORSDOF 0
                                                                                                                      
ENDMDL
MODEL 2
REMARK VINA RESULT:   -11.357      2.472      5.153
REMARK INTER + INTRA:         -11.357
REMARK INTER:                 -11.357
REMARK INTRA:                   0.000
REMARK UNBOUND:                 0.000
ROOT
ATOM      1 C1   LIG A   1      21.496  22.860  13.519  1.00 20.00    -0.044 C 
ATOM      2 C2   LIG A   1      21.106  22.478  12.061  1.00 20.00    +0.047 C 
ATOM      3 C3   LIG A   1      19.628  22.893  11.865  1.00 20.00    -0.044 C 
ATOM      4 C4   LIG A   1      22.009  23.353  11.138  1.00 20.00    -0.006 C 
ATOM      5 C5   LIG A   1      22.507  22.635   9.885  1.00 20.00    +0.058 C 
ATOM      6 O6   LIG A   1      22.820  23.602   8.871  1.00 20.00    -0.393 OA
ATOM      7 C7   LIG A   1      21.471  21.660   9.362  1.00 20.00    -0.006 C 
ATOM      8 C8   LIG A   1      21.188  20.544  10.402  1.00 20.00    +0.047 C 
ATOM      9 C9   LIG A   1      19.791  19.955  10.069  1.00 20.00    -0.044 C 
ATOM     10 C10  LIG A   1      22.230  19.414  10.179  1.00 20.00    -0.044 C 
ATOM     11 N11  LIG A   1      21.393  21.054  11.784  1.00 20.00    -0.144 NA
ATOM     12 O12  LIG A   1      20.748  20.199  12.739  1.00 20.00    -0.120 OA
ATOM     13 C13  LIG A   1      25.100  23.886  15.775  1.00 20.00    -0.060 C 
ATOM     14 C14  LIG A   1      23.932  23.458  14.864  1.00 20.00    -0.016 C 
ATOM     15 C15  LIG A   1      22.621  23.424  15.718  1.00 20.00    -0.023 C 
ATOM     16 C16  LIG A   1      21.646  24.534  15.421  1.00 20.00    -0.044 A 
ATOM     17 C17  LIG A   1      21.924  25.853  15.782  1.00 20.00    -0.058 A 
ATOM     18 C18  LIG A   1      21.249  26.898  15.152  1.00 20.00    -0.054 A 
ATOM     19 C19  LIG A   1      20.321  26.633  14.128  1.00 20.00    +0.009 A 
ATOM     20 C20  LIG A   1      19.942  25.300  13.886  1.00 20.00    +0.130 A 
ATOM     21 C21  LIG A   1      20.555  24.262  14.589  1.00 20.00    -0.016 A 
ATOM     22 O22  LIG A   1      19.050  25.049  12.866  1.00 20.00    -0.464 OA
ATOM     23 C23  LIG A   1      19.206  23.908  12.106  1.00 20.00    +0.104 C 
ATOM     24 C24  LIG A   1      20.149  23.639  11.177  1.00 20.00    +0.082 C 
ATOM     25 C25  LIG A   1      20.011  22.402  10.376  1.00 20.00    -0.010 A 
ATOM     26 C26  LIG A   1      19.962  21.151  10.999  1.00 20.00    -0.052 A 
ATOM     27 C27  LIG A   1      19.820  19.981  10.244  1.00 20.00    -0.038 A 
ATOM     28 C28  LIG A   1      19.715  20.019   8.847  1.00 20.00    +0.034 A 
ATOM     29 N29  LIG A   1      19.645  18.804   8.160  1.00 20.00    -0.385 NA
ATOM     30 C30  LIG A   1      19.395  18.783   6.721  1.00 20.00    +0.016 C 
ATOM     31 C31  LIG A   1      19.311  17.343   6.205  1.00 20.00    -0.023 C 
ATOM     32 C32  LIG A   1      20.649  16.586   6.226  1.00 20.00    -0.003 C 
ATOM     33 N33  LIG A   1      21.228  16.377   7.557  1.00 20.00    -0.317 NA
ATOM     34 C34  LIG A   1      20.551  15.358   8.362  1.00 20.00    -0.005 C 
ATOM     35 C35  LIG A   1      20.856  13.914   7.947  1.00 20.00    -0.039 C 
ATOM     36 C36  LIG A   1      22.246  13.399   8.337  1.00 20.00    -0.040 C 
ATOM     37 C37  LIG A   1      23.409  14.139   7.679  1.00 20.00    -0.008 C 
ATOM     38 N38  LIG A   1      24.664  13.443   7.960  1.00 20.00    -0.330 NA
ATOM     39 C39  LIG A   1      19.816  21.267   8.228  1.00 20.00    -0.038 A 
ATOM     40 C40  LIG A   1      19.944  22.444   8.979  1.00 20.00    -0.052 A 
ATOM     41 C41  LIG A   1      21.227  24.637  10.852  1.00 20.00    +0.264 C 
ATOM     42 O42  LIG A   1      21.300  25.119   9.721  1.00 20.00    -0.268 OA
ATOM     43 N43  LIG A   1      22.092  24.990  11.881  1.00 20.00    -0.277 NA
ATOM     44 C44  LIG A   1      22.597  26.370  11.869  1.00 20.00    +0.029 C 
ATOM     45 C45  LIG A   1      21.694  27.511  11.346  1.00 20.00    -0.034 C 
ATOM     46 C46  LIG A   1      20.209  27.607  11.749  1.00 20.00    -0.034 C 
ATOM     47 C47  LIG A   1      19.861  27.787  13.249  1.00 20.00    +0.085 C 
ATOM     48 C48  LIG A   1      18.373  28.082  13.438  1.00 20.00    +0.311 C 
ATOM     49 O49  LIG A   1      17.585  27.524  14.185  1.00 20.00    -0.252 OA
ATOM     50 O50  LIG A   1      17.953  29.139  12.709  1.00 20.00    -0.481 OA
ATOM     51 C51  LIG A   1      22.755  23.963  12.579  1.00 20.00    +0.246 C 
ATOM     52 O52  LIG A   1      22.489  22.765  12.425  1.00 20.00    -0.273 OA
ATOM     53 C53  LIG A   1      23.913  24.331  13.557  1.00 20.00    +0.088 C 
ATOM     54 N54  LIG A   1      25.186  24.141  12.814  1.00 20.00    -0.320 NA
ATOM     55 H55  LIG A   1      21.441  23.946  13.666  1.00 20.00    +0.025 H 
ATOM     56 H56  LIG A   1      22.523  22.550  13.751  1.00 20.00    +0.025 H 
ATOM     57 H57  LIG A   1      20.828  22.406  14.260  1.00 20.00    +0.025 H 
ATOM     58 H58  LIG A   1      18.949  22.288  12.474  1.00 20.00    +0.025 H 
ATOM     59 H59  LIG A   1      19.477  23.937  12.166  1.00 20.00    +0.025 H 
ATOM     60 H60  LIG A   1      19.303  22.820  10.825  1.00 20.00    +0.025 H 
ATOM     61 H61  LIG A   1      21.481  24.271  10.851  1.00 20.00    +0.031 H 
ATOM     62 H62  LIG A   1      22.902  23.700  11.676  1.00 20.00    +0.031 H 
ATOM     63 H63  LIG A   1      23.441  22.105  10.106  1.00 20.00    +0.060 H 
ATOM     64 H64  LIG A   1      23.466  24.205   9.275  1.00 20.00    +0.210 HD
ATOM     65 H65  LIG A   1      20.559  22.216   9.108  1.00 20.00    +0.031 H 
ATOM     66 H66  LIG A   1      21.812  21.235   8.408  1.00 20.00    +0.031 H 
ATOM     67 H67  LIG A   1      19.731  19.688   9.007  1.00 20.00    +0.025 H 
ATOM     68 H68  LIG A   1      19.582  19.040  10.635  1.00 20.00    +0.025 H 
ATOM     69 H69  LIG A   1      18.983  20.664  10.268  1.00 20.00    +0.025 H 
ATOM     70 H70  LIG A   1      22.197  19.045   9.146  1.00 20.00    +0.025 H 
ATOM     71 H71  LIG A   1      22.046  18.554  10.833  1.00 20.00    +0.025 H 
ATOM     72 H72  LIG A   1      23.252  19.762  10.369  1.00 20.00    +0.025 H 
ATOM     73 H73  LIG A   1      26.065  23.783  15.269  1.00 20.00    +0.023 H 
ATOM     74 H74  LIG A   1      24.994  24.927  16.097  1.00 20.00    +0.023 H 
ATOM     75 H75  LIG A   1      25.145  23.254  16.671  1.00 20.00    +0.023 H 
ATOM     76 H76  LIG A   1      24.140  22.414  14.581  1.00 20.00    +0.032 H 
ATOM     77 H77  LIG A   1      22.127  22.458  15.541  1.00 20.00    +0.032 H 
ATOM     78 H78  LIG A   1      22.844  23.428  16.792  1.00 20.00    +0.032 H 
ATOM     79 H79  LIG A   1      22.731  26.079  16.476  1.00 20.00    +0.063 H 
ATOM     80 H80  LIG A   1      21.535  27.921  15.395  1.00 20.00    +0.063 H 
ATOM     81 H81  LIG A   1      20.303  23.228  14.362  1.00 20.00    +0.067 H 
ATOM     82 H82  LIG A   1      18.363  23.250  12.294  1.00 20.00    +0.105 H 
ATOM     83 H83  LIG A   1      20.061  21.069  12.080  1.00 20.00    +0.063 H 
ATOM     84 H84  LIG A   1      19.815  19.026  10.762  1.00 20.00    +0.064 H 
ATOM     85 H85  LIG A   1      19.085  18.127   8.676  1.00 20.00    +0.160 HD
ATOM     86 H86  LIG A   1      18.445  19.289   6.504  1.00 20.00    +0.049 H 
ATOM     87 H87  LIG A   1      20.195  19.308   6.184  1.00 20.00    +0.049 H 
ATOM     88 H88  LIG A   1      18.969  17.379   5.164  1.00 20.00    +0.030 H 
ATOM     89 H89  LIG A   1      18.542  16.790   6.760  1.00 20.00    +0.030 H 
ATOM     90 H90  LIG A   1      21.378  17.159   5.642  1.00 20.00    +0.043 H 
ATOM     91 H91  LIG A   1      20.532  15.633   5.700  1.00 20.00    +0.043 H 
ATOM     92 H92  LIG A   1      21.173  17.276   8.055  1.00 20.00    +0.122 HD
ATOM     93 H93  LIG A   1      20.866  15.487   9.405  1.00 20.00    +0.043 H 
ATOM     94 H94  LIG A   1      19.467  15.523   8.358  1.00 20.00    +0.043 H 
ATOM     95 H95  LIG A   1      20.699  13.772   6.872  1.00 20.00    +0.028 H 
ATOM     96 H96  LIG A   1      20.118  13.268   8.442  1.00 20.00    +0.028 H 
ATOM     97 H97  LIG A   1      22.292  12.336   8.062  1.00 20.00    +0.028 H 
ATOM     98 H98  LIG A   1      22.353  13.439   9.430  1.00 20.00    +0.028 H 
ATOM     99 H99  LIG A   1      23.262  14.196   6.596  1.00 20.00    +0.043 H 
ATOM    100 H100 LIG A   1      23.491  15.157   8.072  1.00 20.00    +0.043 H 
ATOM    101 H101 LIG A   1      25.427  13.941   7.503  1.00 20.00    +0.118 HD
ATOM    102 H102 LIG A   1      24.638  12.514   7.544  1.00 20.00    +0.118 HD
ATOM    103 H103 LIG A   1      19.789  21.362   7.147  1.00 20.00    +0.064 H 
ATOM    104 H104 LIG A   1      19.996  23.393   8.452  1.00 20.00    +0.063 H 
ATOM    105 H105 LIG A   1      22.880  26.658  12.881  1.00 20.00    +0.050 H 
ATOM    106 H106 LIG A   1      23.526  26.363  11.286  1.00 20.00    +0.050 H 
ATOM    107 H107 LIG A   1      21.728  27.494  10.248  1.00 20.00    +0.029 H 
ATOM    108 H108 LIG A   1      22.178  28.458  11.621  1.00 20.00    +0.029 H 
ATOM    109 H109 LIG A   1      19.825  28.488  11.216  1.00 20.00    +0.028 H 
ATOM    110 H110 LIG A   1      19.647  26.781  11.309  1.00 20.00    +0.028 H 
ATOM    111 H111 LIG A   1      20.371  28.697  13.592  1.00 20.00    +0.047 H 
ATOM    112 H112 LIG A   1      17.001  29.209  12.937  1.00 20.00    +0.296 HD
ATOM    113 H113 LIG A   1      23.882  25.374  13.863  1.00 20.00    +0.057 H 
ATOM    114 H114 LIG A   1      25.291  23.140  12.623  1.00 20.00    +0.119 HD
ATOM    115 H115 LIG A   1      25.119  24.574  11.891  1.00 20.00    +0.119 HD
ENDROOT
TORSDOF 0
                                                                                                                      
ENDMDL
MODEL 3
REMARK VINA RESULT:   -11.245      6.854      9.747
REMARK INTER + INTRA:         -11.245
REMARK INTER:                 -11.245
REMARK INTRA:                   0.000
REMARK UNBOUND:                 0.000
ROOT
ATOM      1 C1   LIG A   1      21.406  18.459   7.130  1.00 20.00    -0.044 C 
ATOM      2 C2   LIG A   1      20.522  17.230   7.489  1.00 20.00    +0.047 C 
ATOM      3 C3   LIG A   1      21.480  16.099   7.937  1.00 20.00    -0.044 C 
ATOM      4 C4   LIG A   1      19.653  17.674   8.705  1.00 20.00    -0.006 C 
ATOM      5 C5   LIG A   1      18.219  17.146   8.677  1.00 20.00    +0.058 C 
ATOM      6 O6   LIG A   1      17.695  17.110  10.013  1.00 20.00    -0.393 OA
ATOM      7 C7   LIG A   1      18.155  15.762   8.064  1.00 20.00    -0.006 C 
ATOM      8 C8   LIG A   1      18.622  15.790   6.584  1.00 20.00    +0.047 C 
ATOM      9 C9   LIG A   1      19.060  14.347   6.217  1.00 20.00    -0.044 C 
ATOM     10 C10  LIG A   1      17.389  16.136   5.706  1.00 20.00    -0.044 C 
ATOM     11 N11  LIG A   1      19.620  16.873   6.373  1.00 20.00    -0.144 NA
ATOM     12 O12  LIG A   1      20.357  16.652   5.161  1.00 20.00    -0.120 OA
ATOM     13 C13  LIG A   1      21.039  22.815   6.976  1.00 20.00    -0.060 C 
ATOM     14 C14  LIG A   1      21.000  21.274   7.029  1.00 20.00    -0.016 C 
ATOM     15 C15  LIG A   1      22.396  20.726   6.581  1.00 20.00    -0.023 C 
ATOM     16 C16  LIG A   1      23.227  20.137   7.692  1.00 20.00    -0.044 A 
ATOM     17 C17  LIG A   1      23.789  20.947   8.679  1.00 20.00    -0.058 A 
ATOM     18 C18  LIG A   1      24.180  20.384   9.894  1.00 20.00    -0.054 A 
ATOM     19 C19  LIG A   1      23.973  19.014  10.145  1.00 20.00    +0.009 A 
ATOM     20 C20  LIG A   1      23.551  18.189   9.087  1.00 20.00    +0.130 A 
ATOM     21 C21  LIG A   1      23.251  18.746   7.843  1.00 20.00    -0.016 A 
ATOM     22 O22  LIG A   1      23.331  16.854   9.348  1.00 20.00    -0.464 OA
ATOM     23 C23  LIG A   1      22.290  16.210   8.710  1.00 20.00    +0.104 C 
ATOM     24 C24  LIG A   1      20.962  16.341   8.925  1.00 20.00    +0.082 C 
ATOM     25 C25  LIG A   1      20.045  15.418   8.221  1.00 20.00    -0.010 A 
ATOM     26 C26  LIG A   1      20.031  15.355   6.824  1.00 20.00    -0.052 A 
ATOM     27 C27  LIG A   1      19.170  14.475   6.156  1.00 20.00    -0.038 A 
ATOM     28 C28  LIG A   1      18.304  13.625   6.857  1.00 20.00    +0.034 A 
ATOM     29 N29  LIG A   1      17.428  12.825   6.118  1.00 20.00    -0.385 NA
ATOM     30 C30  LIG A   1      16.604  11.822   6.785  1.00 20.00    +0.016 C 
ATOM     31 C31  LIG A   1      15.768  11.040   5.767  1.00 20.00    -0.023 C 
ATOM     32 C32  LIG A   1      14.653  11.862   5.101  1.00 20.00    -0.003 C 
ATOM     33 N33  LIG A   1      15.110  12.991   4.284  1.00 20.00    -0.317 NA
ATOM     34 C34  LIG A   1      15.703  12.612   3.001  1.00 20.00    -0.005 C 
ATOM     35 C35  LIG A   1      14.689  12.186   1.933  1.00 20.00    -0.039 C 
ATOM     36 C36  LIG A   1      13.881  13.327   1.303  1.00 20.00    -0.040 C 
ATOM     37 C37  LIG A   1      12.976  14.080   2.276  1.00 20.00    -0.008 C 
ATOM     38 N38  LIG A   1      12.112  15.002   1.538  1.00 20.00    -0.330 NA
ATOM     39 C39  LIG A   1      18.287  13.730   8.249  1.00 20.00    -0.038 A 
ATOM     40 C40  LIG A   1      19.155  14.599   8.924  1.00 20.00    -0.052 A 
ATOM     41 C41  LIG A   1      20.433  17.292   9.964  1.00 20.00    +0.264 C 
ATOM     42 O42  LIG A   1      19.800  16.860  10.928  1.00 20.00    -0.268 OA
ATOM     43 N43  LIG A   1      20.715  18.641   9.788  1.00 20.00    -0.277 NA
ATOM     44 C44  LIG A   1      20.904  19.437  11.009  1.00 20.00    +0.029 C 
ATOM     45 C45  LIG A   1      21.547  18.786  12.255  1.00 20.00    -0.034 C 
ATOM     46 C46  LIG A   1      22.796  17.889  12.137  1.00 20.00    -0.034 C 
ATOM     47 C47  LIG A   1      24.100  18.511  11.575  1.00 20.00    +0.085 C 
ATOM     48 C48  LIG A   1      25.281  17.553  11.734  1.00 20.00    +0.311 C 
ATOM     49 O49  LIG A   1      26.077  17.194  10.882  1.00 20.00    -0.252 OA
ATOM     50 O50  LIG A   1      25.448  17.136  13.009  1.00 20.00    -0.481 OA
ATOM     51 C51  LIG A   1      20.385  19.238   8.557  1.00 20.00    +0.246 C 
ATOM     52 O52  LIG A   1      20.001  18.589   7.576  1.00 20.00    -0.273 OA
ATOM     53 C53  LIG A   1      20.453  20.790   8.419  1.00 20.00    +0.088 C 
ATOM     54 N54  LIG A   1      19.072  21.304   8.617  1.00 20.00    -0.320 NA
ATOM     55 H55  LIG A   1      21.946  18.823   8.013  1.00 20.00    +0.025 H 
ATOM     56 H56  LIG A   1      20.798  19.291   6.754  1.00 20.00    +0.025 H 
ATOM     57 H57  LIG A   1      22.162  18.221   6.373  1.00 20.00    +0.025 H 
ATOM     58 H58  LIG A   1      22.096  15.733   7.110  1.00 20.00    +0.025 H 
ATOM     59 H59  LIG A   1      22.170  16.462   8.710  1.00 20.00    +0.025 H 
ATOM     60 H60  LIG A   1      20.953  15.245   8.368  1.00 20.00    +0.025 H 
ATOM     61 H61  LIG A   1      20.136  17.379   9.645  1.00 20.00    +0.031 H 
ATOM     62 H62  LIG A   1      19.582  18.770   8.758  1.00 20.00    +0.031 H 
ATOM     63 H63  LIG A   1      17.580  17.835   8.112  1.00 20.00    +0.060 H 
ATOM     64 H64  LIG A   1      17.785  18.016  10.353  1.00 20.00    +0.210 HD
ATOM     65 H65  LIG A   1      18.769  15.079   8.667  1.00 20.00    +0.031 H 
ATOM     66 H66  LIG A   1      17.134  15.366   8.148  1.00 20.00    +0.031 H 
ATOM     67 H67  LIG A   1      18.279  13.628   6.490  1.00 20.00    +0.025 H 
ATOM     68 H68  LIG A   1      19.234  14.229   5.141  1.00 20.00    +0.025 H 
ATOM     69 H69  LIG A   1      19.972  14.045   6.739  1.00 20.00    +0.025 H 
ATOM     70 H70  LIG A   1      16.572  15.423   5.875  1.00 20.00    +0.025 H 
ATOM     71 H71  LIG A   1      17.627  16.102   4.636  1.00 20.00    +0.025 H 
ATOM     72 H72  LIG A   1      17.002  17.137   5.927  1.00 20.00    +0.025 H 
ATOM     73 H73  LIG A   1      20.046  23.248   7.135  1.00 20.00    +0.023 H 
ATOM     74 H74  LIG A   1      21.713  23.223   7.736  1.00 20.00    +0.023 H 
ATOM     75 H75  LIG A   1      21.382  23.162   5.994  1.00 20.00    +0.023 H 
ATOM     76 H76  LIG A   1      20.287  20.966   6.248  1.00 20.00    +0.032 H 
ATOM     77 H77  LIG A   1      22.227  19.957   5.814  1.00 20.00    +0.032 H 
ATOM     78 H78  LIG A   1      22.985  21.500   6.073  1.00 20.00    +0.032 H 
ATOM     79 H79  LIG A   1      23.833  22.026   8.552  1.00 20.00    +0.063 H 
ATOM     80 H80  LIG A   1      24.546  21.045  10.678  1.00 20.00    +0.063 H 
ATOM     81 H81  LIG A   1      22.871  18.116   7.043  1.00 20.00    +0.067 H 
ATOM     82 H82  LIG A   1      22.705  15.466   8.037  1.00 20.00    +0.105 H 
ATOM     83 H83  LIG A   1      20.669  16.012   6.235  1.00 20.00    +0.063 H 
ATOM     84 H84  LIG A   1      19.168  14.476   5.069  1.00 20.00    +0.064 H 
ATOM     85 H85  LIG A   1      17.879  12.478   5.273  1.00 20.00    +0.160 HD
ATOM     86 H86  LIG A   1      17.246  11.116   7.327  1.00 20.00    +0.049 H 
ATOM     87 H87  LIG A   1      15.929  12.298   7.509  1.00 20.00    +0.049 H 
ATOM     88 H88  LIG A   1      15.292  10.204   6.294  1.00 20.00    +0.030 H 
ATOM     89 H89  LIG A   1      16.424  10.589   5.011  1.00 20.00    +0.030 H 
ATOM     90 H90  LIG A   1      14.009  12.271   5.888  1.00 20.00    +0.043 H 
ATOM     91 H91  LIG A   1      14.013  11.193   4.515  1.00 20.00    +0.043 H 
ATOM     92 H92  LIG A   1      15.819  13.494   4.836  1.00 20.00    +0.122 HD
ATOM     93 H93  LIG A   1      16.260  13.477   2.618  1.00 20.00    +0.043 H 
ATOM     94 H94  LIG A   1      16.448  11.820   3.140  1.00 20.00    +0.043 H 
ATOM     95 H95  LIG A   1      14.006  11.422   2.321  1.00 20.00    +0.028 H 
ATOM     96 H96  LIG A   1      15.250  11.699   1.124  1.00 20.00    +0.028 H 
ATOM     97 H97  LIG A   1      13.269  12.892   0.502  1.00 20.00    +0.028 H 
ATOM     98 H98  LIG A   1      14.569  14.032   0.817  1.00 20.00    +0.028 H 
ATOM     99 H99  LIG A   1      12.356  13.378   2.842  1.00 20.00    +0.043 H 
ATOM    100 H100 LIG A   1      13.571  14.667   2.982  1.00 20.00    +0.043 H 
ATOM    101 H101 LIG A   1      11.505  15.486   2.199  1.00 20.00    +0.118 HD
ATOM    102 H102 LIG A   1      11.499  14.472   0.921  1.00 20.00    +0.118 HD
ATOM    103 H103 LIG A   1      17.607  13.134   8.849  1.00 20.00    +0.064 H 
ATOM    104 H104 LIG A   1      19.120  14.628  10.011  1.00 20.00    +0.063 H 
ATOM    105 H105 LIG A   1      21.518  20.307  10.780  1.00 20.00    +0.050 H 
ATOM    106 H106 LIG A   1      19.917  19.828  11.288  1.00 20.00    +0.050 H 
ATOM    107 H107 LIG A   1      20.775  18.194  12.765  1.00 20.00    +0.029 H 
ATOM    108 H108 LIG A   1      21.781  19.597  12.959  1.00 20.00    +0.029 H 
ATOM    109 H109 LIG A   1      23.007  17.557  13.162  1.00 20.00    +0.028 H 
ATOM    110 H110 LIG A   1      22.545  16.962  11.618  1.00 20.00    +0.028 H 
ATOM    111 H111 LIG A   1      24.351  19.369  12.214  1.00 20.00    +0.047 H 
ATOM    112 H112 LIG A   1      26.231  16.547  12.954  1.00 20.00    +0.296 HD
ATOM    113 H113 LIG A   1      21.069  21.248   9.189  1.00 20.00    +0.057 H 
ATOM    114 H114 LIG A   1      18.502  20.980   7.830  1.00 20.00    +0.119 HD
ATOM    115 H115 LIG A   1      18.651  20.866   9.438  1.00 20.00    +0.119 HD
ENDROOT
TORSDOF 0
                                                                                                                      
ENDMDL
MODEL 4
REMARK VINA RESULT:   -10.948      4.061     11.185
REMARK INTER + INTRA:         -10.948
REMARK INTER:                 -10.948
REMARK INTRA:                   0.000
REMARK UNBOUND:                 0.000
ROOT
ATOM      1 C1   LIG A   1      19.325  17.900   8.266  1.00 20.00    -0.044 C 
ATOM      2 C2   LIG A   1      20.039  18.382   9.562  1.00 20.00    +0.047 C 
ATOM      3 C3   LIG A   1      19.154  17.944  10.755  1.00 20.00    -0.044 C 
ATOM      4 C4   LIG A   1      21.390  17.604   9.616  1.00 20.00    -0.006 C 
ATOM      5 C5   LIG A   1      22.568  18.429  10.132  1.00 20.00    +0.058 C 
ATOM      6 O6   LIG A   1      23.569  17.552  10.668  1.00 20.00    -0.393 OA
ATOM      7 C7   LIG A   1      22.126  19.414  11.196  1.00 20.00    -0.006 C 
ATOM      8 C8   LIG A   1      21.116  20.439  10.615  1.00 20.00    +0.047 C 
ATOM      9 C9   LIG A   1      20.312  21.015  11.811  1.00 20.00    -0.044 C 
ATOM     10 C10  LIG A   1      21.931  21.610  10.001  1.00 20.00    -0.044 C 
ATOM     11 N11  LIG A   1      20.333  19.830   9.506  1.00 20.00    -0.144 NA
ATOM     12 O12  LIG A   1      19.144  20.592   9.249  1.00 20.00    -0.120 OA
ATOM     13 C13  LIG A   1      20.387  16.799   4.168  1.00 20.00    -0.060 C 
ATOM     14 C14  LIG A   1      20.162  17.265   5.621  1.00 20.00    -0.016 C 
ATOM     15 C15  LIG A   1      18.630  17.199   5.933  1.00 20.00    -0.023 C 
ATOM     16 C16  LIG A   1      18.224  16.089   6.868  1.00 20.00    -0.044 A 
ATOM     17 C17  LIG A   1      18.266  14.754   6.464  1.00 20.00    -0.058 A 
ATOM     18 C18  LIG A   1      18.302  13.743   7.423  1.00 20.00    -0.054 A 
ATOM     19 C19  LIG A   1      18.338  14.061   8.794  1.00 20.00    +0.009 A 
ATOM     20 C20  LIG A   1      18.141  15.398   9.184  1.00 20.00    +0.130 A 
ATOM     21 C21  LIG A   1      18.010  16.395   8.216  1.00 20.00    -0.016 A 
ATOM     22 O22  LIG A   1      18.200  15.703  10.527  1.00 20.00    -0.464 OA
ATOM     23 C23  LIG A   1      18.759  16.903  10.916  1.00 20.00    +0.104 C 
ATOM     24 C24  LIG A   1      20.060  17.268  10.905  1.00 20.00    +0.082 C 
ATOM     25 C25  LIG A   1      20.432  18.558  11.527  1.00 20.00    -0.010 A 
ATOM     26 C26  LIG A   1      19.870  19.756  11.073  1.00 20.00    -0.052 A 
ATOM     27 C27  LIG A   1      20.212  20.976  11.667  1.00 20.00    -0.038 A 
ATOM     28 C28  LIG A   1      21.117  21.043  12.736  1.00 20.00    +0.034 A 
ATOM     29 N29  LIG A   1      21.458  22.305  13.230  1.00 20.00    -0.385 NA
ATOM     30 C30  LIG A   1      22.284  22.429  14.428  1.00 20.00    +0.016 C 
ATOM     31 C31  LIG A   1      22.481  23.902  14.801  1.00 20.00    -0.023 C 
ATOM     32 C32  LIG A   1      23.363  24.690  13.820  1.00 20.00    -0.003 C 
ATOM     33 N33  LIG A   1      22.829  24.812  12.459  1.00 20.00    -0.317 NA
ATOM     34 C34  LIG A   1      21.712  25.747  12.325  1.00 20.00    -0.005 C 
ATOM     35 C35  LIG A   1      22.113  27.227  12.354  1.00 20.00    -0.039 C 
ATOM     36 C36  LIG A   1      22.792  27.747  11.082  1.00 20.00    -0.040 C 
ATOM     37 C37  LIG A   1      24.134  27.090  10.761  1.00 20.00    -0.008 C 
ATOM     38 N38  LIG A   1      24.779  27.796   9.654  1.00 20.00    -0.330 NA
ATOM     39 C39  LIG A   1      21.712  19.849  13.150  1.00 20.00    -0.038 A 
ATOM     40 C40  LIG A   1      21.363  18.622  12.568  1.00 20.00    -0.052 A 
ATOM     41 C41  LIG A   1      21.127  16.326  10.415  1.00 20.00    +0.264 C 
ATOM     42 O42  LIG A   1      22.004  15.935  11.186  1.00 20.00    -0.268 OA
ATOM     43 N43  LIG A   1      21.049  15.918   9.089  1.00 20.00    -0.277 NA
ATOM     44 C44  LIG A   1      21.516  14.557   8.793  1.00 20.00    +0.029 C 
ATOM     45 C45  LIG A   1      21.323  13.436   9.840  1.00 20.00    -0.034 C 
ATOM     46 C46  LIG A   1      19.992  13.271  10.600  1.00 20.00    -0.034 C 
ATOM     47 C47  LIG A   1      18.709  12.967   9.784  1.00 20.00    +0.085 C 
ATOM     48 C48  LIG A   1      17.539  12.619  10.705  1.00 20.00    +0.311 C 
ATOM     49 O49  LIG A   1      16.416  13.096  10.707  1.00 20.00    -0.252 OA
ATOM     50 O50  LIG A   1      17.827  11.609  11.556  1.00 20.00    -0.481 OA
ATOM     51 C51  LIG A   1      20.958  16.906   8.090  1.00 20.00    +0.246 C 
ATOM     52 O52  LIG A   1      20.789  18.105   8.343  1.00 20.00    -0.273 OA
ATOM     53 C53  LIG A   1      21.125  16.495   6.595  1.00 20.00    +0.088 C 
ATOM     54 N54  LIG A   1      22.537  16.774   6.223  1.00 20.00    -0.320 NA
ATOM     55 H55  LIG A   1      19.263  16.805   8.239  1.00 20.00    +0.025 H 
ATOM     56 H56  LIG A   1      19.871  18.218   7.369  1.00 20.00    +0.025 H 
ATOM     57 H57  LIG A   1      18.299  18.277   8.192  1.00 20.00    +0.025 H 
ATOM     58 H58  LIG A   1      18.201  18.483  10.777  1.00 20.00    +0.025 H 
ATOM     59 H59  LIG A   1      18.913  16.876  10.685  1.00 20.00    +0.025 H 
ATOM     60 H60  LIG A   1      19.644  18.089  11.720  1.00 20.00    +0.025 H 
ATOM     61 H61  LIG A   1      21.281  16.697  10.224  1.00 20.00    +0.031 H 
ATOM     62 H62  LIG A   1      21.674  17.241   8.619  1.00 20.00    +0.031 H 
ATOM     63 H63  LIG A   1      23.039  18.965   9.299  1.00 20.00    +0.060 H 
ATOM     64 H64  LIG A   1      23.790  16.937   9.949  1.00 20.00    +0.210 HD
ATOM     65 H65  LIG A   1      21.694  18.855  12.037  1.00 20.00    +0.031 H 
ATOM     66 H66  LIG A   1      23.004  19.920  11.620  1.00 20.00    +0.031 H 
ATOM     67 H67  LIG A   1      20.992  21.361  12.599  1.00 20.00    +0.025 H 
ATOM     68 H68  LIG A   1      19.701  21.878  11.522  1.00 20.00    +0.025 H 
ATOM     69 H69  LIG A   1      19.649  20.271  12.262  1.00 20.00    +0.025 H 
ATOM     70 H70  LIG A   1      22.602  22.056  10.745  1.00 20.00    +0.025 H 
ATOM     71 H71  LIG A   1      21.281  22.412   9.634  1.00 20.00    +0.025 H 
ATOM     72 H72  LIG A   1      22.551  21.275   9.160  1.00 20.00    +0.025 H 
ATOM     73 H73  LIG A   1      21.420  16.966   3.847  1.00 20.00    +0.023 H 
ATOM     74 H74  LIG A   1      20.163  15.734   4.051  1.00 20.00    +0.023 H 
ATOM     75 H75  LIG A   1      19.747  17.361   3.476  1.00 20.00    +0.023 H 
ATOM     76 H76  LIG A   1      20.431  18.333   5.638  1.00 20.00    +0.032 H 
ATOM     77 H77  LIG A   1      18.332  18.162   6.370  1.00 20.00    +0.032 H 
ATOM     78 H78  LIG A   1      18.038  17.118   5.012  1.00 20.00    +0.032 H 
ATOM     79 H79  LIG A   1      18.372  14.496   5.412  1.00 20.00    +0.063 H 
ATOM     80 H80  LIG A   1      18.410  12.713   7.088  1.00 20.00    +0.063 H 
ATOM     81 H81  LIG A   1      17.914  17.436   8.518  1.00 20.00    +0.067 H 
ATOM     82 H82  LIG A   1      17.980  17.522  11.351  1.00 20.00    +0.105 H 
ATOM     83 H83  LIG A   1      19.180  19.757  10.231  1.00 20.00    +0.063 H 
ATOM     84 H84  LIG A   1      19.777  21.889  11.268  1.00 20.00    +0.064 H 
ATOM     85 H85  LIG A   1      20.650  22.925  13.232  1.00 20.00    +0.160 HD
ATOM     86 H86  LIG A   1      21.797  21.917  15.268  1.00 20.00    +0.049 H 
ATOM     87 H87  LIG A   1      23.268  21.969  14.267  1.00 20.00    +0.049 H 
ATOM     88 H88  LIG A   1      22.968  23.938  15.784  1.00 20.00    +0.030 H 
ATOM     89 H89  LIG A   1      21.506  24.391  14.927  1.00 20.00    +0.030 H 
ATOM     90 H90  LIG A   1      24.332  24.183  13.743  1.00 20.00    +0.043 H 
ATOM     91 H91  LIG A   1      23.579  25.677  14.241  1.00 20.00    +0.043 H 
ATOM     92 H92  LIG A   1      22.508  23.876  12.176  1.00 20.00    +0.122 HD
ATOM     93 H93  LIG A   1      21.216  25.547  11.367  1.00 20.00    +0.043 H 
ATOM     94 H94  LIG A   1      20.955  25.555  13.095  1.00 20.00    +0.043 H 
ATOM     95 H95  LIG A   1      22.743  27.447  13.223  1.00 20.00    +0.028 H 
ATOM     96 H96  LIG A   1      21.196  27.813  12.496  1.00 20.00    +0.028 H 
ATOM     97 H97  LIG A   1      22.940  28.828  11.207  1.00 20.00    +0.028 H 
ATOM     98 H98  LIG A   1      22.108  27.626  10.231  1.00 20.00    +0.028 H 
ATOM     99 H99  LIG A   1      24.790  27.114  11.636  1.00 20.00    +0.043 H 
ATOM    100 H100 LIG A   1      23.992  26.048  10.459  1.00 20.00    +0.043 H 
ATOM    101 H101 LIG A   1      25.678  27.355   9.461  1.00 20.00    +0.118 HD
ATOM    102 H102 LIG A   1      24.984  28.753   9.934  1.00 20.00    +0.118 HD
ATOM    103 H103 LIG A   1      22.455  19.837  13.941  1.00 20.00    +0.064 H 
ATOM    104 H104 LIG A   1      21.838  17.718  12.941  1.00 20.00    +0.063 H 
ATOM    105 H105 LIG A   1      21.032  14.199   7.885  1.00 20.00    +0.050 H 
ATOM    106 H106 LIG A   1      22.585  14.634   8.555  1.00 20.00    +0.050 H 
ATOM    107 H107 LIG A   1      22.113  13.539  10.596  1.00 20.00    +0.029 H 
ATOM    108 H108 LIG A   1      21.544  12.484   9.339  1.00 20.00    +0.029 H 
ATOM    109 H109 LIG A   1      20.155  12.423  11.280  1.00 20.00    +0.028 H 
ATOM    110 H110 LIG A   1      19.839  14.112  11.278  1.00 20.00    +0.028 H 
ATOM    111 H111 LIG A   1      18.898  12.046   9.214  1.00 20.00    +0.047 H 
ATOM    112 H112 LIG A   1      16.995  11.497  12.065  1.00 20.00    +0.296 HD
ATOM    113 H113 LIG A   1      20.965  15.431   6.436  1.00 20.00    +0.057 H 
ATOM    114 H114 LIG A   1      22.672  17.790   6.249  1.00 20.00    +0.119 HD
ATOM    115 H115 LIG A   1      23.165  16.412   6.941  1.00 20.00    +0.119 HD
ENDROOT
TORSDOF 0
                                                                                                                      
ENDMDL
MODEL 5
REMARK VINA RESULT:   -10.856      2.461      3.680
REMARK INTER + INTRA:         -10.856
REMARK INTER:                 -10.856
REMARK INTRA:                   0.000
REMARK UNBOUND:                 0.000
ROOT
ATOM      1 C1   LIG A   1      21.153  24.128  11.162  1.00 20.00    -0.044 C 
ATOM      2 C2   LIG A   1      21.616  22.644  11.079  1.00 20.00    +0.047 C 
ATOM      3 C3   LIG A   1      23.159  22.659  10.951  1.00 20.00    -0.044 C 
ATOM      4 C4   LIG A   1      21.224  22.001  12.445  1.00 20.00    -0.006 C 
ATOM      5 C5   LIG A   1      20.717  20.563  12.338  1.00 20.00    +0.058 C 
ATOM      6 O6   LIG A   1      20.917  19.891  13.591  1.00 20.00    -0.393 OA
ATOM      7 C7   LIG A   1      21.429  19.811  11.232  1.00 20.00    -0.006 C 
ATOM      8 C8   LIG A   1      21.147  20.460   9.851  1.00 20.00    +0.047 C 
ATOM      9 C9   LIG A   1      22.295  20.025   8.901  1.00 20.00    -0.044 C 
ATOM     10 C10  LIG A   1      19.833  19.844   9.299  1.00 20.00    -0.044 C 
ATOM     11 N11  LIG A   1      20.911  21.921  10.000  1.00 20.00    -0.144 NA
ATOM     12 O12  LIG A   1      21.067  22.589   8.739  1.00 20.00    -0.120 OA
ATOM     13 C13  LIG A   1      17.802  26.418  12.792  1.00 20.00    -0.060 C 
ATOM     14 C14  LIG A   1      18.885  25.475  12.229  1.00 20.00    -0.016 C 
ATOM     15 C15  LIG A   1      19.952  26.337  11.475  1.00 20.00    -0.023 C 
ATOM     16 C16  LIG A   1      21.280  26.450  12.179  1.00 20.00    -0.044 A 
ATOM     17 C17  LIG A   1      21.413  27.194  13.352  1.00 20.00    -0.058 A 
ATOM     18 C18  LIG A   1      22.494  26.957  14.201  1.00 20.00    -0.054 A 
ATOM     19 C19  LIG A   1      23.427  25.946  13.902  1.00 20.00    +0.009 A 
ATOM     20 C20  LIG A   1      23.364  25.316  12.646  1.00 20.00    +0.130 A 
ATOM     21 C21  LIG A   1      22.331  25.628  11.760  1.00 20.00    -0.016 A 
ATOM     22 O22  LIG A   1      24.268  24.313  12.372  1.00 20.00    -0.464 OA
ATOM     23 C23  LIG A   1      23.856  23.227  11.627  1.00 20.00    +0.104 C 
ATOM     24 C24  LIG A   1      23.039  22.216  11.995  1.00 20.00    +0.082 C 
ATOM     25 C25  LIG A   1      22.874  21.075  11.068  1.00 20.00    -0.010 A 
ATOM     26 C26  LIG A   1      22.396  21.275   9.769  1.00 20.00    -0.052 A 
ATOM     27 C27  LIG A   1      22.249  20.198   8.886  1.00 20.00    -0.038 A 
ATOM     28 C28  LIG A   1      22.582  18.891   9.266  1.00 20.00    +0.034 A 
ATOM     29 N29  LIG A   1      22.344  17.861   8.351  1.00 20.00    -0.385 NA
ATOM     30 C30  LIG A   1      22.797  16.502   8.635  1.00 20.00    +0.016 C 
ATOM     31 C31  LIG A   1      22.467  15.564   7.469  1.00 20.00    -0.023 C 
ATOM     32 C32  LIG A   1      20.967  15.283   7.290  1.00 20.00    -0.003 C 
ATOM     33 N33  LIG A   1      20.147  16.452   6.954  1.00 20.00    -0.317 NA
ATOM     34 C34  LIG A   1      20.301  16.927   5.578  1.00 20.00    -0.005 C 
ATOM     35 C35  LIG A   1      19.594  16.065   4.525  1.00 20.00    -0.039 C 
ATOM     36 C36  LIG A   1      18.068  16.208   4.478  1.00 20.00    -0.040 C 
ATOM     37 C37  LIG A   1      17.346  15.761   5.748  1.00 20.00    -0.008 C 
ATOM     38 N38  LIG A   1      15.901  15.749   5.521  1.00 20.00    -0.330 NA
ATOM     39 C39  LIG A   1      23.010  18.691  10.580  1.00 20.00    -0.038 A 
ATOM     40 C40  LIG A   1      23.172  19.767  11.464  1.00 20.00    -0.052 A 
ATOM     41 C41  LIG A   1      22.430  22.170  13.370  1.00 20.00    +0.264 C 
ATOM     42 O42  LIG A   1      22.706  21.246  14.136  1.00 20.00    -0.268 OA
ATOM     43 N43  LIG A   1      21.585  23.216  13.723  1.00 20.00    -0.277 NA
ATOM     44 C44  LIG A   1      21.588  23.614  15.137  1.00 20.00    +0.029 C 
ATOM     45 C45  LIG A   1      22.895  23.519  15.957  1.00 20.00    -0.034 C 
ATOM     46 C46  LIG A   1      24.240  24.002  15.378  1.00 20.00    -0.034 C 
ATOM     47 C47  LIG A   1      24.385  25.497  14.995  1.00 20.00    +0.085 C 
ATOM     48 C48  LIG A   1      25.834  25.840  14.652  1.00 20.00    +0.311 C 
ATOM     49 O49  LIG A   1      26.257  26.410  13.659  1.00 20.00    -0.252 OA
ATOM     50 O50  LIG A   1      26.699  25.501  15.633  1.00 20.00    -0.481 OA
ATOM     51 C51  LIG A   1      20.510  23.523  12.866  1.00 20.00    +0.246 C 
ATOM     52 O52  LIG A   1      20.374  23.014  11.748  1.00 20.00    -0.273 OA
ATOM     53 C53  LIG A   1      19.406  24.511  13.354  1.00 20.00    +0.088 C 
ATOM     54 N54  LIG A   1      18.280  23.686  13.865  1.00 20.00    -0.320 NA
ATOM     55 H55  LIG A   1      21.549  24.611  12.064  1.00 20.00    +0.025 H 
ATOM     56 H56  LIG A   1      20.059  24.202  11.206  1.00 20.00    +0.025 H 
ATOM     57 H57  LIG A   1      21.500  24.720  10.308  1.00 20.00    +0.025 H 
ATOM     58 H58  LIG A   1      23.486  23.079   9.994  1.00 20.00    +0.025 H 
ATOM     59 H59  LIG A   1      23.606  23.279  11.738  1.00 20.00    +0.025 H 
ATOM     60 H60  LIG A   1      23.601  21.665  11.051  1.00 20.00    +0.025 H 
ATOM     61 H61  LIG A   1      22.071  22.043  13.141  1.00 20.00    +0.031 H 
ATOM     62 H62  LIG A   1      20.428  22.578  12.937  1.00 20.00    +0.031 H 
ATOM     63 H63  LIG A   1      19.636  20.563  12.155  1.00 20.00    +0.060 H 
ATOM     64 H64  LIG A   1      20.459  20.433  14.254  1.00 20.00    +0.210 HD
ATOM     65 H65  LIG A   1      22.505  19.788  11.455  1.00 20.00    +0.031 H 
ATOM     66 H66  LIG A   1      21.121  18.756  11.244  1.00 20.00    +0.031 H 
ATOM     67 H67  LIG A   1      22.429  18.937   8.934  1.00 20.00    +0.025 H 
ATOM     68 H68  LIG A   1      22.088  20.285   7.856  1.00 20.00    +0.025 H 
ATOM     69 H69  LIG A   1      23.253  20.476   9.174  1.00 20.00    +0.025 H 
ATOM     70 H70  LIG A   1      19.903  18.750   9.243  1.00 20.00    +0.025 H 
ATOM     71 H71  LIG A   1      19.608  20.203   8.288  1.00 20.00    +0.025 H 
ATOM     72 H72  LIG A   1      18.974  20.085   9.935  1.00 20.00    +0.025 H 
ATOM     73 H73  LIG A   1      16.953  25.860  13.199  1.00 20.00    +0.023 H 
ATOM     74 H74  LIG A   1      18.202  27.055  13.587  1.00 20.00    +0.023 H 
ATOM     75 H75  LIG A   1      17.403  27.067  12.003  1.00 20.00    +0.023 H 
ATOM     76 H76  LIG A   1      18.382  24.869  11.458  1.00 20.00    +0.032 H 
ATOM     77 H77  LIG A   1      20.110  25.889  10.484  1.00 20.00    +0.032 H 
ATOM     78 H78  LIG A   1      19.575  27.346  11.267  1.00 20.00    +0.032 H 
ATOM     79 H79  LIG A   1      20.632  27.884  13.663  1.00 20.00    +0.063 H 
ATOM     80 H80  LIG A   1      22.538  27.494  15.147  1.00 20.00    +0.063 H 
ATOM     81 H81  LIG A   1      22.250  25.100  10.813  1.00 20.00    +0.067 H 
ATOM     82 H82  LIG A   1      24.385  23.239  10.679  1.00 20.00    +0.105 H 
ATOM     83 H83  LIG A   1      22.103  22.270   9.436  1.00 20.00    +0.063 H 
ATOM     84 H84  LIG A   1      21.847  20.390   7.895  1.00 20.00    +0.064 H 
ATOM     85 H85  LIG A   1      22.551  18.164   7.401  1.00 20.00    +0.160 HD
ATOM     86 H86  LIG A   1      23.884  16.500   8.790  1.00 20.00    +0.049 H 
ATOM     87 H87  LIG A   1      22.319  16.119   9.546  1.00 20.00    +0.049 H 
ATOM     88 H88  LIG A   1      22.963  14.604   7.659  1.00 20.00    +0.030 H 
ATOM     89 H89  LIG A   1      22.904  15.953   6.540  1.00 20.00    +0.030 H 
ATOM     90 H90  LIG A   1      20.578  14.875   8.230  1.00 20.00    +0.043 H 
ATOM     91 H91  LIG A   1      20.835  14.490   6.547  1.00 20.00    +0.043 H 
ATOM     92 H92  LIG A   1      20.424  17.209   7.594  1.00 20.00    +0.122 HD
ATOM     93 H93  LIG A   1      19.887  17.942   5.523  1.00 20.00    +0.043 H 
ATOM     94 H94  LIG A   1      21.362  17.026   5.321  1.00 20.00    +0.043 H 
ATOM     95 H95  LIG A   1      19.861  15.009   4.636  1.00 20.00    +0.028 H 
ATOM     96 H96  LIG A   1      19.979  16.367   3.541  1.00 20.00    +0.028 H 
ATOM     97 H97  LIG A   1      17.708  15.611   3.629  1.00 20.00    +0.028 H 
ATOM     98 H98  LIG A   1      17.808  17.251   4.254  1.00 20.00    +0.028 H 
ATOM     99 H99  LIG A   1      17.674  14.758   6.041  1.00 20.00    +0.043 H 
ATOM    100 H100 LIG A   1      17.553  16.449   6.573  1.00 20.00    +0.043 H 
ATOM    101 H101 LIG A   1      15.435  15.436   6.372  1.00 20.00    +0.118 HD
ATOM    102 H102 LIG A   1      15.676  15.064   4.802  1.00 20.00    +0.118 HD
ATOM    103 H103 LIG A   1      23.240  17.697  10.951  1.00 20.00    +0.064 H 
ATOM    104 H104 LIG A   1      23.530  19.562  12.470  1.00 20.00    +0.063 H 
ATOM    105 H105 LIG A   1      21.262  24.650  15.220  1.00 20.00    +0.050 H 
ATOM    106 H106 LIG A   1      20.816  23.014  15.637  1.00 20.00    +0.050 H 
ATOM    107 H107 LIG A   1      23.033  22.471  16.255  1.00 20.00    +0.029 H 
ATOM    108 H108 LIG A   1      22.724  24.054  16.901  1.00 20.00    +0.029 H 
ATOM    109 H109 LIG A   1      24.980  23.791  16.163  1.00 20.00    +0.028 H 
ATOM    110 H110 LIG A   1      24.551  23.352  14.558  1.00 20.00    +0.028 H 
ATOM    111 H111 LIG A   1      24.167  26.084  15.898  1.00 20.00    +0.047 H 
ATOM    112 H112 LIG A   1      27.569  25.784  15.278  1.00 20.00    +0.296 HD
ATOM    113 H113 LIG A   1      19.740  25.130  14.184  1.00 20.00    +0.057 H 
ATOM    114 H114 LIG A   1      17.873  23.186  13.068  1.00 20.00    +0.119 HD
ATOM    115 H115 LIG A   1      18.636  22.950  14.477  1.00 20.00    +0.119 HD
ENDROOT
TORSDOF 0
                                                                                                                      
ENDMDL
MODEL 6
REMARK VINA RESULT:   -10.806      3.448     10.945
REMARK INTER + INTRA:         -10.806
REMARK INTER:                 -10.806
REMARK INTRA:                   0.000
REMARK UNBOUND:                 0.000
ROOT
ATOM      1 C1   LIG A   1      20.981  17.398  10.801  1.00 20.00    -0.044 C 
ATOM      2 C2   LIG A   1      21.183  18.858  10.301  1.00 20.00    +0.047 C 
ATOM      3 C3   LIG A   1      22.653  18.974   9.829  1.00 20.00    -0.044 C 
ATOM      4 C4   LIG A   1      20.238  19.019   9.071  1.00 20.00    -0.006 C 
ATOM      5 C5   LIG A   1      19.562  20.387   8.975  1.00 20.00    +0.058 C 
ATOM      6 O6   LIG A   1      19.197  20.646   7.611  1.00 20.00    -0.393 OA
ATOM      7 C7   LIG A   1      20.473  21.487   9.481  1.00 20.00    -0.006 C 
ATOM      8 C8   LIG A   1      20.802  21.285  10.983  1.00 20.00    +0.047 C 
ATOM      9 C9   LIG A   1      22.117  22.060  11.270  1.00 20.00    -0.044 C 
ATOM     10 C10  LIG A   1      19.677  21.964  11.810  1.00 20.00    -0.044 C 
ATOM     11 N11  LIG A   1      20.783  19.838  11.332  1.00 20.00    -0.144 NA
ATOM     12 O12  LIG A   1      21.478  19.607  12.566  1.00 20.00    -0.120 OA
ATOM     13 C13  LIG A   1      17.717  14.521  11.249  1.00 20.00    -0.060 C 
ATOM     14 C14  LIG A   1      18.749  15.654  11.082  1.00 20.00    -0.016 C 
ATOM     15 C15  LIG A   1      20.142  15.134  11.571  1.00 20.00    -0.023 C 
ATOM     16 C16  LIG A   1      21.142  14.886  10.471  1.00 20.00    -0.044 A 
ATOM     17 C17  LIG A   1      20.985  13.823   9.580  1.00 20.00    -0.058 A 
ATOM     18 C18  LIG A   1      21.647  13.847   8.354  1.00 20.00    -0.054 A 
ATOM     19 C19  LIG A   1      22.439  14.954   7.992  1.00 20.00    +0.009 A 
ATOM     20 C20  LIG A   1      22.708  15.939   8.959  1.00 20.00    +0.130 A 
ATOM     21 C21  LIG A   1      22.116  15.858  10.220  1.00 20.00    -0.016 A 
ATOM     22 O22  LIG A   1      23.466  17.028   8.589  1.00 20.00    -0.464 OA
ATOM     23 C23  LIG A   1      23.159  18.267   9.115  1.00 20.00    +0.104 C 
ATOM     24 C24  LIG A   1      22.104  19.062   8.833  1.00 20.00    +0.082 C 
ATOM     25 C25  LIG A   1      22.079  20.424   9.412  1.00 20.00    -0.010 A 
ATOM     26 C26  LIG A   1      22.122  20.610  10.797  1.00 20.00    -0.052 A 
ATOM     27 C27  LIG A   1      22.109  21.898  11.346  1.00 20.00    -0.038 A 
ATOM     28 C28  LIG A   1      22.060  23.039  10.535  1.00 20.00    +0.034 A 
ATOM     29 N29  LIG A   1      21.982  24.287  11.161  1.00 20.00    -0.385 NA
ATOM     30 C30  LIG A   1      22.069  25.514  10.374  1.00 20.00    +0.016 C 
ATOM     31 C31  LIG A   1      22.009  26.747  11.281  1.00 20.00    -0.023 C 
ATOM     32 C32  LIG A   1      20.639  26.981  11.938  1.00 20.00    -0.003 C 
ATOM     33 N33  LIG A   1      20.199  25.929  12.861  1.00 20.00    -0.317 NA
ATOM     34 C34  LIG A   1      20.899  25.916  14.146  1.00 20.00    -0.005 C 
ATOM     35 C35  LIG A   1      20.465  27.019  15.118  1.00 20.00    -0.039 C 
ATOM     36 C36  LIG A   1      19.098  26.809  15.780  1.00 20.00    -0.040 C 
ATOM     37 C37  LIG A   1      17.916  26.795  14.813  1.00 20.00    -0.008 C 
ATOM     38 N38  LIG A   1      16.660  26.792  15.563  1.00 20.00    -0.330 NA
ATOM     39 C39  LIG A   1      21.966  22.845   9.156  1.00 20.00    -0.038 A 
ATOM     40 C40  LIG A   1      21.992  21.559   8.599  1.00 20.00    -0.052 A 
ATOM     41 C41  LIG A   1      21.058  18.642   7.836  1.00 20.00    +0.264 C 
ATOM     42 O42  LIG A   1      20.889  19.297   6.807  1.00 20.00    -0.268 OA
ATOM     43 N43  LIG A   1      20.335  17.491   8.126  1.00 20.00    -0.277 NA
ATOM     44 C44  LIG A   1      19.916  16.673   6.980  1.00 20.00    +0.029 C 
ATOM     45 C45  LIG A   1      20.821  16.585   5.730  1.00 20.00    -0.034 C 
ATOM     46 C46  LIG A   1      22.345  16.386   5.857  1.00 20.00    -0.034 C 
ATOM     47 C47  LIG A   1      22.867  15.095   6.539  1.00 20.00    +0.085 C 
ATOM     48 C48  LIG A   1      24.381  14.963   6.381  1.00 20.00    +0.311 C 
ATOM     49 O49  LIG A   1      25.212  14.756   7.250  1.00 20.00    -0.252 OA
ATOM     50 O50  LIG A   1      24.780  15.030   5.091  1.00 20.00    -0.481 OA
ATOM     51 C51  LIG A   1      19.693  17.403   9.376  1.00 20.00    +0.246 C 
ATOM     52 O52  LIG A   1      19.869  18.226  10.282  1.00 20.00    -0.273 OA
ATOM     53 C53  LIG A   1      18.675  16.249   9.630  1.00 20.00    +0.088 C 
ATOM     54 N54  LIG A   1      17.318  16.806   9.389  1.00 20.00    -0.320 NA
ATOM     55 H55  LIG A   1      21.116  16.682   9.979  1.00 20.00    +0.025 H 
ATOM     56 H56  LIG A   1      19.969  17.249  11.199  1.00 20.00    +0.025 H 
ATOM     57 H57  LIG A   1      21.698  17.123  11.581  1.00 20.00    +0.025 H 
ATOM     58 H58  LIG A   1      23.358  18.893  10.662  1.00 20.00    +0.025 H 
ATOM     59 H59  LIG A   1      22.898  18.168   9.127  1.00 20.00    +0.025 H 
ATOM     60 H60  LIG A   1      22.856  19.912   9.306  1.00 20.00    +0.025 H 
ATOM     61 H61  LIG A   1      20.785  18.813   8.142  1.00 20.00    +0.031 H 
ATOM     62 H62  LIG A   1      19.432  18.272   9.093  1.00 20.00    +0.031 H 
ATOM     63 H63  LIG A   1      18.628  20.381   9.550  1.00 20.00    +0.060 H 
ATOM     64 H64  LIG A   1      18.636  19.899   7.344  1.00 20.00    +0.210 HD
ATOM     65 H65  LIG A   1      21.384  21.502   8.867  1.00 20.00    +0.031 H 
ATOM     66 H66  LIG A   1      20.004  22.465   9.307  1.00 20.00    +0.031 H 
ATOM     67 H67  LIG A   1      22.043  23.089  10.900  1.00 20.00    +0.025 H 
ATOM     68 H68  LIG A   1      22.332  22.127  12.343  1.00 20.00    +0.025 H 
ATOM     69 H69  LIG A   1      22.982  21.604  10.782  1.00 20.00    +0.025 H 
ATOM     70 H70  LIG A   1      19.574  23.022  11.542  1.00 20.00    +0.025 H 
ATOM     71 H71  LIG A   1      19.881  21.925  12.887  1.00 20.00    +0.025 H 
ATOM     72 H72  LIG A   1      18.705  21.486  11.640  1.00 20.00    +0.025 H 
ATOM     73 H73  LIG A   1      16.697  14.874  11.064  1.00 20.00    +0.023 H 
ATOM     74 H74  LIG A   1      17.919  13.693  10.563  1.00 20.00    +0.023 H 
ATOM     75 H75  LIG A   1      17.733  14.127  12.273  1.00 20.00    +0.023 H 
ATOM     76 H76  LIG A   1      18.449  16.439  11.795  1.00 20.00    +0.032 H 
ATOM     77 H77  LIG A   1      20.555  15.877  12.268  1.00 20.00    +0.032 H 
ATOM     78 H78  LIG A   1      20.039  14.220  12.168  1.00 20.00    +0.032 H 
ATOM     79 H79  LIG A   1      20.275  13.026   9.789  1.00 20.00    +0.063 H 
ATOM     80 H80  LIG A   1      21.452  13.046   7.643  1.00 20.00    +0.063 H 
ATOM     81 H81  LIG A   1      22.280  16.649  10.949  1.00 20.00    +0.067 H 
ATOM     82 H82  LIG A   1      23.977  18.582   9.756  1.00 20.00    +0.105 H 
ATOM     83 H83  LIG A   1      22.138  19.753  11.469  1.00 20.00    +0.063 H 
ATOM     84 H84  LIG A   1      22.114  22.001  12.428  1.00 20.00    +0.064 H 
ATOM     85 H85  LIG A   1      22.554  24.307  12.003  1.00 20.00    +0.160 HD
ATOM     86 H86  LIG A   1      23.017  25.532   9.821  1.00 20.00    +0.049 H 
ATOM     87 H87  LIG A   1      21.247  25.565   9.649  1.00 20.00    +0.049 H 
ATOM     88 H88  LIG A   1      22.235  27.627  10.668  1.00 20.00    +0.030 H 
ATOM     89 H89  LIG A   1      22.800  26.693  12.040  1.00 20.00    +0.030 H 
ATOM     90 H90  LIG A   1      19.885  27.053  11.146  1.00 20.00    +0.043 H 
ATOM     91 H91  LIG A   1      20.639  27.957  12.435  1.00 20.00    +0.043 H 
ATOM     92 H92  LIG A   1      20.362  25.028  12.390  1.00 20.00    +0.122 HD
ATOM     93 H93  LIG A   1      20.710  24.946  14.624  1.00 20.00    +0.043 H 
ATOM     94 H94  LIG A   1      21.984  25.964  13.994  1.00 20.00    +0.043 H 
ATOM     95 H95  LIG A   1      20.493  28.003  14.636  1.00 20.00    +0.028 H 
ATOM     96 H96  LIG A   1      21.213  27.062  15.921  1.00 20.00    +0.028 H 
ATOM     97 H97  LIG A   1      18.959  27.618  16.510  1.00 20.00    +0.028 H 
ATOM     98 H98  LIG A   1      19.115  25.874  16.356  1.00 20.00    +0.028 H 
ATOM     99 H99  LIG A   1      17.945  27.674  14.161  1.00 20.00    +0.043 H 
ATOM    100 H100 LIG A   1      17.938  25.898  14.188  1.00 20.00    +0.043 H 
ATOM    101 H101 LIG A   1      15.882  26.797  14.904  1.00 20.00    +0.118 HD
ATOM    102 H102 LIG A   1      16.585  27.652  16.103  1.00 20.00    +0.118 HD
ATOM    103 H103 LIG A   1      21.879  23.685   8.475  1.00 20.00    +0.064 H 
ATOM    104 H104 LIG A   1      21.939  21.461   7.517  1.00 20.00    +0.063 H 
ATOM    105 H105 LIG A   1      19.763  15.646   7.307  1.00 20.00    +0.050 H 
ATOM    106 H106 LIG A   1      18.928  17.041   6.672  1.00 20.00    +0.050 H 
ATOM    107 H107 LIG A   1      20.665  17.494   5.133  1.00 20.00    +0.029 H 
ATOM    108 H108 LIG A   1      20.428  15.773   5.103  1.00 20.00    +0.029 H 
ATOM    109 H109 LIG A   1      22.719  16.385   4.824  1.00 20.00    +0.028 H 
ATOM    110 H110 LIG A   1      22.805  17.276   6.291  1.00 20.00    +0.028 H 
ATOM    111 H111 LIG A   1      22.453  14.245   5.980  1.00 20.00    +0.047 H 
ATOM    112 H112 LIG A   1      25.754  14.922   5.149  1.00 20.00    +0.296 HD
ATOM    113 H113 LIG A   1      18.801  15.423   8.934  1.00 20.00    +0.057 H 
ATOM    114 H114 LIG A   1      17.134  17.505  10.115  1.00 20.00    +0.119 HD
ATOM    115 H115 LIG A   1      17.308  17.334   8.515  1.00 20.00    +0.119 HD
ENDROOT
TORSDOF 0
                                                                                                                      
ENDMDL
MODEL 7
REMARK VINA RESULT:   -10.534      5.455     13.508
REMARK INTER + INTRA:         -10.534
REMARK INTER:                 -10.534
REMARK INTRA:                   0.000
REMARK UNBOUND:                 0.000
ROOT
ATOM      1 C1   LIG A   1      20.379  14.167   8.528  1.00 20.00    -0.044 C 
ATOM      2 C2   LIG A   1      20.341  15.598   7.916  1.00 20.00    +0.047 C 
ATOM      3 C3   LIG A   1      21.446  15.656   6.833  1.00 20.00    -0.044 C 
ATOM      4 C4   LIG A   1      18.947  15.728   7.229  1.00 20.00    -0.006 C 
ATOM      5 C5   LIG A   1      18.302  17.106   7.374  1.00 20.00    +0.058 C 
ATOM      6 O6   LIG A   1      17.368  17.313   6.304  1.00 20.00    -0.393 OA
ATOM      7 C7   LIG A   1      19.347  18.204   7.363  1.00 20.00    -0.006 C 
ATOM      8 C8   LIG A   1      20.311  18.062   8.570  1.00 20.00    +0.047 C 
ATOM      9 C9   LIG A   1      21.617  18.816   8.200  1.00 20.00    -0.044 C 
ATOM     10 C10  LIG A   1      19.675  18.806   9.775  1.00 20.00    -0.044 C 
ATOM     11 N11  LIG A   1      20.446  16.634   8.965  1.00 20.00    -0.144 NA
ATOM     12 O12  LIG A   1      21.618  16.441   9.770  1.00 20.00    -0.120 OA
ATOM     13 C13  LIG A   1      17.652  11.397  10.532  1.00 20.00    -0.060 C 
ATOM     14 C14  LIG A   1      18.504  12.496   9.864  1.00 20.00    -0.016 C 
ATOM     15 C15  LIG A   1      19.967  11.963   9.707  1.00 20.00    -0.023 C 
ATOM     16 C16  LIG A   1      20.371  11.640   8.292  1.00 20.00    -0.044 A 
ATOM     17 C17  LIG A   1      19.830  10.542   7.620  1.00 20.00    -0.058 A 
ATOM     18 C18  LIG A   1      19.875  10.494   6.228  1.00 20.00    -0.054 A 
ATOM     19 C19  LIG A   1      20.425  11.563   5.495  1.00 20.00    +0.009 A 
ATOM     20 C20  LIG A   1      21.100  12.583   6.188  1.00 20.00    +0.130 A 
ATOM     21 C21  LIG A   1      21.133  12.575   7.584  1.00 20.00    -0.016 A 
ATOM     22 O22  LIG A   1      21.615  13.636   5.463  1.00 20.00    -0.464 OA
ATOM     23 C23  LIG A   1      21.579  14.904   6.007  1.00 20.00    +0.104 C 
ATOM     24 C24  LIG A   1      20.511  15.712   6.183  1.00 20.00    +0.082 C 
ATOM     25 C25  LIG A   1      20.750  17.099   6.641  1.00 20.00    -0.010 A 
ATOM     26 C26  LIG A   1      21.407  17.346   7.850  1.00 20.00    -0.052 A 
ATOM     27 C27  LIG A   1      21.644  18.658   8.281  1.00 20.00    -0.038 A 
ATOM     28 C28  LIG A   1      21.241  19.762   7.518  1.00 20.00    +0.034 A 
ATOM     29 N29  LIG A   1      21.454  21.038   8.048  1.00 20.00    -0.385 NA
ATOM     30 C30  LIG A   1      21.184  22.226   7.242  1.00 20.00    +0.016 C 
ATOM     31 C31  LIG A   1      21.538  23.500   8.016  1.00 20.00    -0.023 C 
ATOM     32 C32  LIG A   1      20.606  23.798   9.201  1.00 20.00    -0.003 C 
ATOM     33 N33  LIG A   1      20.621  22.800  10.276  1.00 20.00    -0.317 NA
ATOM     34 C34  LIG A   1      21.821  22.827  11.114  1.00 20.00    -0.005 C 
ATOM     35 C35  LIG A   1      21.869  23.984  12.119  1.00 20.00    -0.039 C 
ATOM     36 C36  LIG A   1      20.941  23.839  13.330  1.00 20.00    -0.040 C 
ATOM     37 C37  LIG A   1      19.451  23.811  12.993  1.00 20.00    -0.008 C 
ATOM     38 N38  LIG A   1      18.662  23.874  14.224  1.00 20.00    -0.330 NA
ATOM     39 C39  LIG A   1      20.541  19.508   6.337  1.00 20.00    -0.038 A 
ATOM     40 C40  LIG A   1      20.313  18.198   5.894  1.00 20.00    -0.052 A 
ATOM     41 C41  LIG A   1      19.129  15.274   5.780  1.00 20.00    +0.264 C 
ATOM     42 O42  LIG A   1      18.520  15.886   4.901  1.00 20.00    -0.268 OA
ATOM     43 N43  LIG A   1      18.608  14.156   6.421  1.00 20.00    -0.277 NA
ATOM     44 C44  LIG A   1      17.720  13.298   5.625  1.00 20.00    +0.029 C 
ATOM     45 C45  LIG A   1      17.972  13.131   4.109  1.00 20.00    -0.034 C 
ATOM     46 C46  LIG A   1      19.392  12.900   3.554  1.00 20.00    -0.034 C 
ATOM     47 C47  LIG A   1      20.160  11.628   3.998  1.00 20.00    +0.085 C 
ATOM     48 C48  LIG A   1      21.444  11.450   3.189  1.00 20.00    +0.311 C 
ATOM     49 O49  LIG A   1      22.575  11.261   3.606  1.00 20.00    -0.252 OA
ATOM     50 O50  LIG A   1      21.226  11.448   1.855  1.00 20.00    -0.481 OA
ATOM     51 C51  LIG A   1      18.592  14.141   7.828  1.00 20.00    +0.246 C 
ATOM     52 O52  LIG A   1      19.155  14.999   8.517  1.00 20.00    -0.273 OA
ATOM     53 C53  LIG A   1      17.791  13.025   8.568  1.00 20.00    +0.088 C 
ATOM     54 N54  LIG A   1      16.470  13.606   8.928  1.00 20.00    -0.320 NA
ATOM     55 H55  LIG A   1      20.132  13.412   7.771  1.00 20.00    +0.025 H 
ATOM     56 H56  LIG A   1      19.652  14.063   9.343  1.00 20.00    +0.025 H 
ATOM     57 H57  LIG A   1      21.369  13.910   8.921  1.00 20.00    +0.025 H 
ATOM     58 H58  LIG A   1      22.449  15.595   7.268  1.00 20.00    +0.025 H 
ATOM     59 H59  LIG A   1      21.351  14.812   6.138  1.00 20.00    +0.025 H 
ATOM     60 H60  LIG A   1      21.397  16.563   6.227  1.00 20.00    +0.025 H 
ATOM     61 H61  LIG A   1      19.021  15.466   6.166  1.00 20.00    +0.031 H 
ATOM     62 H62  LIG A   1      18.234  15.003   7.647  1.00 20.00    +0.031 H 
ATOM     63 H63  LIG A   1      17.723  17.150   8.304  1.00 20.00    +0.060 H 
ATOM     64 H64  LIG A   1      16.746  16.568   6.354  1.00 20.00    +0.210 HD
ATOM     65 H65  LIG A   1      19.888  18.169   6.408  1.00 20.00    +0.031 H 
ATOM     66 H66  LIG A   1      18.852  19.186   7.366  1.00 20.00    +0.031 H 
ATOM     67 H67  LIG A   1      21.388  19.829   7.849  1.00 20.00    +0.025 H 
ATOM     68 H68  LIG A   1      22.289  18.926   9.060  1.00 20.00    +0.025 H 
ATOM     69 H69  LIG A   1      22.173  18.316   7.402  1.00 20.00    +0.025 H 
ATOM     70 H70  LIG A   1      19.465  19.854   9.526  1.00 20.00    +0.025 H 
ATOM     71 H71  LIG A   1      20.337  18.810  10.648  1.00 20.00    +0.025 H 
ATOM     72 H72  LIG A   1      18.728  18.346  10.081  1.00 20.00    +0.025 H 
ATOM     73 H73  LIG A   1      16.657  11.768  10.803  1.00 20.00    +0.023 H 
ATOM     74 H74  LIG A   1      17.524  10.535   9.871  1.00 20.00    +0.023 H 
ATOM     75 H75  LIG A   1      18.122  11.050  11.460  1.00 20.00    +0.023 H 
ATOM     76 H76  LIG A   1      18.555  13.319  10.594  1.00 20.00    +0.032 H 
ATOM     77 H77  LIG A   1      20.649  12.726  10.108  1.00 20.00    +0.032 H 
ATOM     78 H78  LIG A   1      20.139  11.079  10.334  1.00 20.00    +0.032 H 
ATOM     79 H79  LIG A   1      19.285   9.773   8.164  1.00 20.00    +0.063 H 
ATOM     80 H80  LIG A   1      19.381   9.667   5.721  1.00 20.00    +0.063 H 
ATOM     81 H81  LIG A   1      21.607  13.394   8.121  1.00 20.00    +0.067 H 
ATOM     82 H82  LIG A   1      22.598  15.227   6.198  1.00 20.00    +0.105 H 
ATOM     83 H83  LIG A   1      21.719  16.521   8.488  1.00 20.00    +0.063 H 
ATOM     84 H84  LIG A   1      22.132  18.809   9.240  1.00 20.00    +0.064 H 
ATOM     85 H85  LIG A   1      22.341  21.082   8.545  1.00 20.00    +0.160 HD
ATOM     86 H86  LIG A   1      21.786  22.195   6.325  1.00 20.00    +0.049 H 
ATOM     87 H87  LIG A   1      20.124  22.265   6.958  1.00 20.00    +0.049 H 
ATOM     88 H88  LIG A   1      21.469  24.346   7.321  1.00 20.00    +0.030 H 
ATOM     89 H89  LIG A   1      22.585  23.460   8.345  1.00 20.00    +0.030 H 
ATOM     90 H90  LIG A   1      19.577  23.853   8.825  1.00 20.00    +0.043 H 
ATOM     91 H91  LIG A   1      20.830  24.795   9.594  1.00 20.00    +0.043 H 
ATOM     92 H92  LIG A   1      20.555  21.875   9.829  1.00 20.00    +0.122 HD
ATOM     93 H93  LIG A   1      21.862  21.885  11.675  1.00 20.00    +0.043 H 
ATOM     94 H94  LIG A   1      22.724  22.841  10.492  1.00 20.00    +0.043 H 
ATOM     95 H95  LIG A   1      21.681  24.944  11.625  1.00 20.00    +0.028 H 
ATOM     96 H96  LIG A   1      22.897  24.044  12.502  1.00 20.00    +0.028 H 
ATOM     97 H97  LIG A   1      21.144  24.683  14.003  1.00 20.00    +0.028 H 
ATOM     98 H98  LIG A   1      21.210  22.931  13.886  1.00 20.00    +0.028 H 
ATOM     99 H99  LIG A   1      19.189  24.659  12.352  1.00 20.00    +0.043 H 
ATOM    100 H100 LIG A   1      19.190  22.886  12.471  1.00 20.00    +0.043 H 
ATOM    101 H101 LIG A   1      17.671  23.869  13.981  1.00 20.00    +0.118 HD
ATOM    102 H102 LIG A   1      18.837  24.759  14.695  1.00 20.00    +0.118 HD
ATOM    103 H103 LIG A   1      20.161  20.319   5.724  1.00 20.00    +0.064 H 
ATOM    104 H104 LIG A   1      19.782  18.052   4.956  1.00 20.00    +0.063 H 
ATOM    105 H105 LIG A   1      17.727  12.291   6.039  1.00 20.00    +0.050 H 
ATOM    106 H106 LIG A   1      16.700  13.677   5.771  1.00 20.00    +0.050 H 
ATOM    107 H107 LIG A   1      17.569  14.016   3.599  1.00 20.00    +0.029 H 
ATOM    108 H108 LIG A   1      17.338  12.302   3.766  1.00 20.00    +0.029 H 
ATOM    109 H109 LIG A   1      19.266  12.842   2.464  1.00 20.00    +0.028 H 
ATOM    110 H110 LIG A   1      19.999  13.796   3.691  1.00 20.00    +0.028 H 
ATOM    111 H111 LIG A   1      19.538  10.763   3.727  1.00 20.00    +0.047 H 
ATOM    112 H112 LIG A   1      22.123  11.319   1.478  1.00 20.00    +0.296 HD
ATOM    113 H113 LIG A   1      17.591  12.166   7.933  1.00 20.00    +0.057 H 
ATOM    114 H114 LIG A   1      16.631  14.341   9.624  1.00 20.00    +0.119 HD
ATOM    115 H115 LIG A   1      16.073  14.094   8.124  1.00 20.00    +0.119 HD
ENDROOT
TORSDOF 0
                                                                                                                      
ENDMDL
MODEL 8
REMARK VINA RESULT:   -10.447      3.346     10.275
REMARK INTER + INTRA:         -10.447
REMARK INTER:                 -10.447
REMARK INTRA:                   0.000
REMARK UNBOUND:                 0.000
ROOT
ATOM      1 C1   LIG A   1      19.953  19.234   8.485  1.00 20.00    -0.044 C 
ATOM      2 C2   LIG A   1      20.441  20.032   9.729  1.00 20.00    +0.047 C 
ATOM      3 C3   LIG A   1      19.528  19.626  10.912  1.00 20.00    -0.044 C 
ATOM      4 C4   LIG A   1      21.892  19.534  10.009  1.00 20.00    -0.006 C 
ATOM      5 C5   LIG A   1      22.855  20.631  10.461  1.00 20.00    +0.058 C 
ATOM      6 O6   LIG A   1      23.932  20.046  11.207  1.00 20.00    -0.393 OA
ATOM      7 C7   LIG A   1      22.147  21.668  11.310  1.00 20.00    -0.006 C 
ATOM      8 C8   LIG A   1      21.041  22.389  10.495  1.00 20.00    +0.047 C 
ATOM      9 C9   LIG A   1      20.035  22.982  11.517  1.00 20.00    -0.044 C 
ATOM     10 C10  LIG A   1      21.702  23.582   9.752  1.00 20.00    -0.044 C 
ATOM     11 N11  LIG A   1      20.488  21.483   9.451  1.00 20.00    -0.144 NA
ATOM     12 O12  LIG A   1      19.218  21.965   8.986  1.00 20.00    -0.120 OA
ATOM     13 C13  LIG A   1      21.591  17.736   4.716  1.00 20.00    -0.060 C 
ATOM     14 C14  LIG A   1      21.146  18.368   6.051  1.00 20.00    -0.016 C 
ATOM     15 C15  LIG A   1      19.624  18.069   6.259  1.00 20.00    -0.023 C 
ATOM     16 C16  LIG A   1      19.322  17.060   7.337  1.00 20.00    -0.044 A 
ATOM     17 C17  LIG A   1      19.631  15.709   7.167  1.00 20.00    -0.058 A 
ATOM     18 C18  LIG A   1      19.742  14.881   8.283  1.00 20.00    -0.054 A 
ATOM     19 C19  LIG A   1      19.587  15.406   9.579  1.00 20.00    +0.009 A 
ATOM     20 C20  LIG A   1      19.126  16.727   9.724  1.00 20.00    +0.130 A 
ATOM     21 C21  LIG A   1      18.925  17.524   8.595  1.00 20.00    -0.016 A 
ATOM     22 O22  LIG A   1      18.998  17.239  10.997  1.00 20.00    -0.464 OA
ATOM     23 C23  LIG A   1      19.302  18.567  11.218  1.00 20.00    +0.104 C 
ATOM     24 C24  LIG A   1      20.517  19.159  11.238  1.00 20.00    +0.082 C 
ATOM     25 C25  LIG A   1      20.599  20.575  11.659  1.00 20.00    -0.010 A 
ATOM     26 C26  LIG A   1      19.890  21.565  10.972  1.00 20.00    -0.052 A 
ATOM     27 C27  LIG A   1      19.958  22.904  11.375  1.00 20.00    -0.038 A 
ATOM     28 C28  LIG A   1      20.726  23.299  12.478  1.00 20.00    +0.034 A 
ATOM     29 N29  LIG A   1      20.796  24.662  12.777  1.00 20.00    -0.385 NA
ATOM     30 C30  LIG A   1      21.465  25.119  13.992  1.00 20.00    +0.016 C 
ATOM     31 C31  LIG A   1      21.369  26.642  14.126  1.00 20.00    -0.023 C 
ATOM     32 C32  LIG A   1      22.197  27.420  13.091  1.00 20.00    -0.003 C 
ATOM     33 N33  LIG A   1      21.790  27.232  11.694  1.00 20.00    -0.317 NA
ATOM     34 C34  LIG A   1      20.548  27.914  11.326  1.00 20.00    -0.005 C 
ATOM     35 C35  LIG A   1      20.687  29.428  11.135  1.00 20.00    -0.039 C 
ATOM     36 C36  LIG A   1      21.391  29.864   9.845  1.00 20.00    -0.040 C 
ATOM     37 C37  LIG A   1      22.850  29.425   9.734  1.00 20.00    -0.008 C 
ATOM     38 N38  LIG A   1      23.474  30.060   8.573  1.00 20.00    -0.330 NA
ATOM     39 C39  LIG A   1      21.471  22.313  13.129  1.00 20.00    -0.038 A 
ATOM     40 C40  LIG A   1      21.397  20.968  12.739  1.00 20.00    -0.052 A 
ATOM     41 C41  LIG A   1      21.772  18.367  10.991  1.00 20.00    +0.264 C 
ATOM     42 O42  LIG A   1      22.622  18.266  11.877  1.00 20.00    -0.268 OA
ATOM     43 N43  LIG A   1      21.898  17.754   9.750  1.00 20.00    -0.277 NA
ATOM     44 C44  LIG A   1      22.618  16.473   9.721  1.00 20.00    +0.029 C 
ATOM     45 C45  LIG A   1      22.514  15.509  10.925  1.00 20.00    -0.034 C 
ATOM     46 C46  LIG A   1      21.162  15.219  11.605  1.00 20.00    -0.034 C 
ATOM     47 C47  LIG A   1      20.037  14.563  10.763  1.00 20.00    +0.085 C 
ATOM     48 C48  LIG A   1      18.858  14.150  11.643  1.00 20.00    +0.311 C 
ATOM     49 O49  LIG A   1      17.676  14.407  11.486  1.00 20.00    -0.252 OA
ATOM     50 O50  LIG A   1      19.227  13.353  12.671  1.00 20.00    -0.481 OA
ATOM     51 C51  LIG A   1      21.741  18.544   8.596  1.00 20.00    +0.246 C 
ATOM     52 O52  LIG A   1      21.345  19.715   8.630  1.00 20.00    -0.273 OA
ATOM     53 C53  LIG A   1      22.124  17.947   7.206  1.00 20.00    +0.088 C 
ATOM     54 N54  LIG A   1      23.498  18.422   6.894  1.00 20.00    -0.320 NA
ATOM     55 H55  LIG A   1      20.081  18.155   8.638  1.00 20.00    +0.025 H 
ATOM     56 H56  LIG A   1      20.524  19.507   7.588  1.00 20.00    +0.025 H 
ATOM     57 H57  LIG A   1      18.890  19.400   8.275  1.00 20.00    +0.025 H 
ATOM     58 H58  LIG A   1      18.500  19.976  10.776  1.00 20.00    +0.025 H 
ATOM     59 H59  LIG A   1      19.481  18.534  11.006  1.00 20.00    +0.025 H 
ATOM     60 H60  LIG A   1      19.888  20.004  11.872  1.00 20.00    +0.025 H 
ATOM     61 H61  LIG A   1      21.879  18.726  10.752  1.00 20.00    +0.031 H 
ATOM     62 H62  LIG A   1      22.333  19.081   9.110  1.00 20.00    +0.031 H 
ATOM     63 H63  LIG A   1      23.309  21.111   9.586  1.00 20.00    +0.060 H 
ATOM     64 H64  LIG A   1      24.326  19.380  10.619  1.00 20.00    +0.210 HD
ATOM     65 H65  LIG A   1      21.735  21.175  12.201  1.00 20.00    +0.031 H 
ATOM     66 H66  LIG A   1      22.879  22.387  11.704  1.00 20.00    +0.031 H 
ATOM     67 H67  LIG A   1      20.563  23.564  12.282  1.00 20.00    +0.025 H 
ATOM     68 H68  LIG A   1      19.317  23.663  11.045  1.00 20.00    +0.025 H 
ATOM     69 H69  LIG A   1      19.466  22.207  12.038  1.00 20.00    +0.025 H 
ATOM     70 H70  LIG A   1      22.209  24.253  10.457  1.00 20.00    +0.025 H 
ATOM     71 H71  LIG A   1      20.964  24.185   9.210  1.00 20.00    +0.025 H 
ATOM     72 H72  LIG A   1      22.450  23.243   9.026  1.00 20.00    +0.025 H 
ATOM     73 H73  LIG A   1      22.608  18.039   4.446  1.00 20.00    +0.023 H 
ATOM     74 H74  LIG A   1      21.565  16.643   4.765  1.00 20.00    +0.023 H 
ATOM     75 H75  LIG A   1      20.938  18.057   3.896  1.00 20.00    +0.023 H 
ATOM     76 H76  LIG A   1      21.226  19.457   5.907  1.00 20.00    +0.032 H 
ATOM     77 H77  LIG A   1      19.124  19.016   6.506  1.00 20.00    +0.032 H 
ATOM     78 H78  LIG A   1      19.150  17.741   5.325  1.00 20.00    +0.032 H 
ATOM     79 H79  LIG A   1      19.884  15.318   6.184  1.00 20.00    +0.063 H 
ATOM     80 H80  LIG A   1      20.057  13.849   8.134  1.00 20.00    +0.063 H 
ATOM     81 H81  LIG A   1      18.623  18.562   8.710  1.00 20.00    +0.067 H 
ATOM     82 H82  LIG A   1      18.390  19.090  11.486  1.00 20.00    +0.105 H 
ATOM     83 H83  LIG A   1      19.297  21.311  10.095  1.00 20.00    +0.063 H 
ATOM     84 H84  LIG A   1      19.415  23.649  10.798  1.00 20.00    +0.064 H 
ATOM     85 H85  LIG A   1      19.898  25.116  12.617  1.00 20.00    +0.160 HD
ATOM     86 H86  LIG A   1      20.991  24.660  14.869  1.00 20.00    +0.049 H 
ATOM     87 H87  LIG A   1      22.523  24.828  13.981  1.00 20.00    +0.049 H 
ATOM     88 H88  LIG A   1      21.742  26.916  15.120  1.00 20.00    +0.030 H 
ATOM     89 H89  LIG A   1      20.318  26.956  14.098  1.00 20.00    +0.030 H 
ATOM     90 H90  LIG A   1      23.241  27.095  13.170  1.00 20.00    +0.043 H 
ATOM     91 H91  LIG A   1      22.199  28.482  13.355  1.00 20.00    +0.043 H 
ATOM     92 H92  LIG A   1      21.663  26.221  11.551  1.00 20.00    +0.122 HD
ATOM     93 H93  LIG A   1      20.193  27.481  10.383  1.00 20.00    +0.043 H 
ATOM     94 H94  LIG A   1      19.762  27.705  12.062  1.00 20.00    +0.043 H 
ATOM     95 H95  LIG A   1      21.180  29.891  11.997  1.00 20.00    +0.028 H 
ATOM     96 H96  LIG A   1      19.673  29.850  11.110  1.00 20.00    +0.028 H 
ATOM     97 H97  LIG A   1      21.339  30.961   9.796  1.00 20.00    +0.028 H 
ATOM     98 H98  LIG A   1      20.826  29.491   8.980  1.00 20.00    +0.028 H 
ATOM     99 H99  LIG A   1      23.402  29.703  10.638  1.00 20.00    +0.043 H 
ATOM    100 H100 LIG A   1      22.919  28.341   9.603  1.00 20.00    +0.043 H 
ATOM    101 H101 LIG A   1      24.449  29.768   8.522  1.00 20.00    +0.118 HD
ATOM    102 H102 LIG A   1      23.483  31.070   8.703  1.00 20.00    +0.118 HD
ATOM    103 H103 LIG A   1      22.122  22.559  13.961  1.00 20.00    +0.064 H 
ATOM    104 H104 LIG A   1      21.979  20.235  13.291  1.00 20.00    +0.063 H 
ATOM    105 H105 LIG A   1      22.295  15.898   8.854  1.00 20.00    +0.050 H 
ATOM    106 H106 LIG A   1      23.676  16.708   9.550  1.00 20.00    +0.050 H 
ATOM    107 H107 LIG A   1      23.195  15.870  11.708  1.00 20.00    +0.029 H 
ATOM    108 H108 LIG A   1      22.943  14.548  10.608  1.00 20.00    +0.029 H 
ATOM    109 H109 LIG A   1      21.398  14.530  12.428  1.00 20.00    +0.028 H 
ATOM    110 H110 LIG A   1      20.800  16.111  12.119  1.00 20.00    +0.028 H 
ATOM    111 H111 LIG A   1      20.437  13.617  10.371  1.00 20.00    +0.047 H 
ATOM    112 H112 LIG A   1      18.380  13.169  13.131  1.00 20.00    +0.296 HD
ATOM    113 H113 LIG A   1      22.164  16.860   7.218  1.00 20.00    +0.057 H 
ATOM    114 H114 LIG A   1      23.454  19.437   6.758  1.00 20.00    +0.119 HD
ATOM    115 H115 LIG A   1      24.103  18.296   7.706  1.00 20.00    +0.119 HD
ENDROOT
TORSDOF 0
                                                                                                                      
ENDMDL
MODEL 9
REMARK VINA RESULT:   -10.294      4.892     11.689
REMARK INTER + INTRA:         -10.294
REMARK INTER:                 -10.294
REMARK INTRA:                   0.000
REMARK UNBOUND:                 0.000
ROOT
ATOM      1 C1   LIG A   1      19.898  16.544   7.175  1.00 20.00    -0.044 C 
ATOM      2 C2   LIG A   1      20.034  17.627   8.285  1.00 20.00    +0.047 C 
ATOM      3 C3   LIG A   1      18.685  17.669   9.043  1.00 20.00    -0.044 C 
ATOM      4 C4   LIG A   1      21.145  17.107   9.249  1.00 20.00    -0.006 C 
ATOM      5 C5   LIG A   1      22.067  18.200   9.789  1.00 20.00    +0.058 C 
ATOM      6 O6   LIG A   1      22.648  17.767  11.028  1.00 20.00    -0.393 OA
ATOM      7 C7   LIG A   1      21.315  19.499  10.000  1.00 20.00    -0.006 C 
ATOM      8 C8   LIG A   1      20.762  20.042   8.656  1.00 20.00    +0.047 C 
ATOM      9 C9   LIG A   1      19.587  20.996   9.000  1.00 20.00    -0.044 C 
ATOM     10 C10  LIG A   1      21.875  20.901   7.998  1.00 20.00    -0.044 C 
ATOM     11 N11  LIG A   1      20.470  18.922   7.721  1.00 20.00    -0.144 NA
ATOM     12 O12  LIG A   1      19.589  19.355   6.674  1.00 20.00    -0.120 OA
ATOM     13 C13  LIG A   1      22.491  13.865   4.888  1.00 20.00    -0.060 C 
ATOM     14 C14  LIG A   1      21.715  14.898   5.730  1.00 20.00    -0.016 C 
ATOM     15 C15  LIG A   1      20.199  14.809   5.353  1.00 20.00    -0.023 C 
ATOM     16 C16  LIG A   1      19.322  14.192   6.412  1.00 20.00    -0.044 A 
ATOM     17 C17  LIG A   1      19.395  12.830   6.706  1.00 20.00    -0.058 A 
ATOM     18 C18  LIG A   1      18.914  12.360   7.927  1.00 20.00    -0.054 A 
ATOM     19 C19  LIG A   1      18.394  13.256   8.881  1.00 20.00    +0.009 A 
ATOM     20 C20  LIG A   1      18.186  14.596   8.509  1.00 20.00    +0.130 A 
ATOM     21 C21  LIG A   1      18.584  15.039   7.246  1.00 20.00    -0.016 A 
ATOM     22 O22  LIG A   1      17.697  15.469   9.456  1.00 20.00    -0.464 OA
ATOM     23 C23  LIG A   1      18.155  16.771   9.466  1.00 20.00    +0.104 C 
ATOM     24 C24  LIG A   1      19.366  17.233   9.848  1.00 20.00    +0.082 C 
ATOM     25 C25  LIG A   1      19.565  18.698   9.922  1.00 20.00    -0.010 A 
ATOM     26 C26  LIG A   1      19.377  19.500   8.791  1.00 20.00    -0.052 A 
ATOM     27 C27  LIG A   1      19.555  20.887   8.861  1.00 20.00    -0.038 A 
ATOM     28 C28  LIG A   1      19.917  21.519  10.058  1.00 20.00    +0.034 A 
ATOM     29 N29  LIG A   1      20.141  22.899  10.031  1.00 20.00    -0.385 NA
ATOM     30 C30  LIG A   1      20.384  23.632  11.270  1.00 20.00    +0.016 C 
ATOM     31 C31  LIG A   1      20.551  25.129  10.992  1.00 20.00    -0.023 C 
ATOM     32 C32  LIG A   1      21.843  25.492  10.243  1.00 20.00    -0.003 C 
ATOM     33 N33  LIG A   1      21.958  24.938   8.890  1.00 20.00    -0.317 NA
ATOM     34 C34  LIG A   1      21.106  25.588   7.892  1.00 20.00    -0.005 C 
ATOM     35 C35  LIG A   1      21.606  26.960   7.427  1.00 20.00    -0.039 C 
ATOM     36 C36  LIG A   1      22.812  26.934   6.482  1.00 20.00    -0.040 C 
ATOM     37 C37  LIG A   1      24.088  26.355   7.092  1.00 20.00    -0.008 C 
ATOM     38 N38  LIG A   1      25.213  26.562   6.180  1.00 20.00    -0.330 NA
ATOM     39 C39  LIG A   1      20.153  20.707  11.169  1.00 20.00    -0.038 A 
ATOM     40 C40  LIG A   1      19.963  19.319  11.110  1.00 20.00    -0.052 A 
ATOM     41 C41  LIG A   1      20.437  16.296  10.335  1.00 20.00    +0.264 C 
ATOM     42 O42  LIG A   1      20.856  16.386  11.490  1.00 20.00    -0.268 OA
ATOM     43 N43  LIG A   1      20.892  15.336   9.439  1.00 20.00    -0.277 NA
ATOM     44 C44  LIG A   1      21.300  14.045  10.011  1.00 20.00    +0.029 C 
ATOM     45 C45  LIG A   1      20.564  13.492  11.253  1.00 20.00    -0.034 C 
ATOM     46 C46  LIG A   1      19.027  13.535  11.359  1.00 20.00    -0.034 C 
ATOM     47 C47  LIG A   1      18.192  12.762  10.306  1.00 20.00    +0.085 C 
ATOM     48 C48  LIG A   1      16.713  12.732  10.689  1.00 20.00    +0.311 C 
ATOM     49 O49  LIG A   1      15.752  13.034  10.000  1.00 20.00    -0.252 OA
ATOM     50 O50  LIG A   1      16.504  12.243  11.932  1.00 20.00    -0.481 OA
ATOM     51 C51  LIG A   1      21.338  15.762   8.174  1.00 20.00    +0.246 C 
ATOM     52 O52  LIG A   1      21.201  16.922   7.767  1.00 20.00    -0.273 OA
ATOM     53 C53  LIG A   1      22.085  14.751   7.250  1.00 20.00    +0.088 C 
ATOM     54 N54  LIG A   1      23.541  14.990   7.433  1.00 20.00    -0.320 NA
ATOM     55 H55  LIG A   1      19.742  15.551   7.615  1.00 20.00    +0.025 H 
ATOM     56 H56  LIG A   1      20.804  16.489   6.559  1.00 20.00    +0.025 H 
ATOM     57 H57  LIG A   1      19.046  16.734   6.512  1.00 20.00    +0.025 H 
ATOM     58 H58  LIG A   1      17.874  18.052   8.415  1.00 20.00    +0.025 H 
ATOM     59 H59  LIG A   1      18.389  16.661   9.361  1.00 20.00    +0.025 H 
ATOM     60 H60  LIG A   1      18.727  18.279   9.948  1.00 20.00    +0.025 H 
ATOM     61 H61  LIG A   1      20.695  16.558  10.085  1.00 20.00    +0.031 H 
ATOM     62 H62  LIG A   1      21.790  16.373   8.746  1.00 20.00    +0.031 H 
ATOM     63 H63  LIG A   1      22.901  18.359   9.094  1.00 20.00    +0.060 H 
ATOM     64 H64  LIG A   1      23.092  16.926  10.829  1.00 20.00    +0.210 HD
ATOM     65 H65  LIG A   1      20.511  19.327  10.728  1.00 20.00    +0.031 H 
ATOM     66 H66  LIG A   1      21.975  20.234  10.482  1.00 20.00    +0.031 H 
ATOM     67 H67  LIG A   1      19.896  21.728   9.756  1.00 20.00    +0.025 H 
ATOM     68 H68  LIG A   1      19.249  21.568   8.128  1.00 20.00    +0.025 H 
ATOM     69 H69  LIG A   1      18.723  20.461   9.405  1.00 20.00    +0.025 H 
ATOM     70 H70  LIG A   1      22.206  21.702   8.671  1.00 20.00    +0.025 H 
ATOM     71 H71  LIG A   1      21.530  21.380   7.075  1.00 20.00    +0.025 H 
ATOM     72 H72  LIG A   1      22.757  20.298   7.748  1.00 20.00    +0.025 H 
ATOM     73 H73  LIG A   1      23.573  13.985   5.001  1.00 20.00    +0.023 H 
ATOM     74 H74  LIG A   1      22.231  12.841   5.176  1.00 20.00    +0.023 H 
ATOM     75 H75  LIG A   1      22.269  13.987   3.821  1.00 20.00    +0.023 H 
ATOM     76 H76  LIG A   1      22.059  15.885   5.382  1.00 20.00    +0.032 H 
ATOM     77 H77  LIG A   1      19.842  15.827   5.142  1.00 20.00    +0.032 H 
ATOM     78 H78  LIG A   1      20.053  14.264   4.412  1.00 20.00    +0.032 H 
ATOM     79 H79  LIG A   1      19.914  12.146   6.037  1.00 20.00    +0.063 H 
ATOM     80 H80  LIG A   1      19.050  11.307   8.168  1.00 20.00    +0.063 H 
ATOM     81 H81  LIG A   1      18.475  16.088   6.979  1.00 20.00    +0.067 H 
ATOM     82 H82  LIG A   1      17.332  17.428   9.201  1.00 20.00    +0.105 H 
ATOM     83 H83  LIG A   1      19.116  19.052   7.834  1.00 20.00    +0.063 H 
ATOM     84 H84  LIG A   1      19.427  21.473   7.955  1.00 20.00    +0.064 H 
ATOM     85 H85  LIG A   1      19.478  23.362   9.412  1.00 20.00    +0.160 HD
ATOM     86 H86  LIG A   1      19.535  23.495  11.953  1.00 20.00    +0.049 H 
ATOM     87 H87  LIG A   1      21.289  23.259  11.767  1.00 20.00    +0.049 H 
ATOM     88 H88  LIG A   1      20.572  25.650  11.957  1.00 20.00    +0.030 H 
ATOM     89 H89  LIG A   1      19.671  25.512  10.459  1.00 20.00    +0.030 H 
ATOM     90 H90  LIG A   1      22.694  25.114  10.821  1.00 20.00    +0.043 H 
ATOM     91 H91  LIG A   1      21.958  26.580  10.227  1.00 20.00    +0.043 H 
ATOM     92 H92  LIG A   1      21.695  23.944   8.947  1.00 20.00    +0.122 HD
ATOM     93 H93  LIG A   1      21.050  24.930   7.016  1.00 20.00    +0.043 H 
ATOM     94 H94  LIG A   1      20.078  25.675   8.262  1.00 20.00    +0.043 H 
ATOM     95 H95  LIG A   1      21.822  27.611   8.281  1.00 20.00    +0.028 H 
ATOM     96 H96  LIG A   1      20.780  27.444   6.887  1.00 20.00    +0.028 H 
ATOM     97 H97  LIG A   1      23.002  27.967   6.161  1.00 20.00    +0.028 H 
ATOM     98 H98  LIG A   1      22.549  26.373   5.574  1.00 20.00    +0.028 H 
ATOM     99 H99  LIG A   1      24.305  26.836   8.050  1.00 20.00    +0.043 H 
ATOM    100 H100 LIG A   1      23.983  25.279   7.258  1.00 20.00    +0.043 H 
ATOM    101 H101 LIG A   1      26.058  26.183   6.607  1.00 20.00    +0.118 HD
ATOM    102 H102 LIG A   1      25.374  27.561   6.061  1.00 20.00    +0.118 HD
ATOM    103 H103 LIG A   1      20.481  21.129  12.114  1.00 20.00    +0.064 H 
ATOM    104 H104 LIG A   1      20.138  18.732  12.008  1.00 20.00    +0.063 H 
ATOM    105 H105 LIG A   1      21.217  13.272   9.250  1.00 20.00    +0.050 H 
ATOM    106 H106 LIG A   1      22.369  14.126  10.244  1.00 20.00    +0.050 H 
ATOM    107 H107 LIG A   1      20.961  14.005  12.139  1.00 20.00    +0.029 H 
ATOM    108 H108 LIG A   1      20.880  12.446  11.376  1.00 20.00    +0.029 H 
ATOM    109 H109 LIG A   1      18.797  13.101  12.342  1.00 20.00    +0.028 H 
ATOM    110 H110 LIG A   1      18.686  14.567  11.453  1.00 20.00    +0.028 H 
ATOM    111 H111 LIG A   1      18.512  11.711  10.348  1.00 20.00    +0.047 H 
ATOM    112 H112 LIG A   1      15.528  12.278  12.029  1.00 20.00    +0.296 HD
ATOM    113 H113 LIG A   1      21.901  13.717   7.531  1.00 20.00    +0.057 H 
ATOM    114 H114 LIG A   1      23.755  15.920   7.058  1.00 20.00    +0.119 HD
ATOM    115 H115 LIG A   1      23.762  15.056   8.428  1.00 20.00    +0.119 HD
ENDROOT
TORSDOF 0
                                                                                                                      
ENDMDL
