ROOT
ATOM      1 C1   LIG A   1      -1.808   0.349  -0.057  1.00 20.00    +0.000 C 
ATOM      2 C2   LIG A   1      -0.806  -0.762   0.158  1.00 20.00    +0.000 C 
ATOM      3 Se3  LIG A   1       0.797  -0.090   1.019  1.00 20.00    +0.000 Se
ATOM      4 C4   LIG A   1       2.215   0.275  -0.226  1.00 20.00    +0.000 C 
ATOM      5 N5   LIG A   1       5.253   1.177  -1.674  1.00 20.00    -0.330 NA
ATOM      6 C6   LIG A   1       6.018   0.721  -0.530  1.00 20.00    -0.008 C 
ATOM      7 C7   LIG A   1       5.906  -0.741  -0.273  1.00 20.00    -0.040 C 
ATOM      8 C8   LIG A   1       4.518  -1.247   0.002  1.00 20.00    -0.039 C 
ATOM      9 C9   LIG A   1       3.889  -0.603   1.202  1.00 20.00    -0.005 C 
ATOM     10 N10  LIG A   1       2.587  -1.055   1.535  1.00 20.00    -0.317 NA
ATOM     11 C11  LIG A   1       1.527  -0.740   0.629  1.00 20.00    -0.003 C 
ATOM     12 C12  LIG A   1       0.273  -1.333   1.212  1.00 20.00    -0.023 C 
ATOM     13 C13  LIG A   1      -0.959  -1.107   0.395  1.00 20.00    +0.017 C 
ATOM     14 N14  LIG A   1      -1.301   0.284   0.188  1.00 20.00    -0.370 NA
ATOM     15 C15  LIG A   1      -2.544   0.516  -0.498  1.00 20.00    +0.126 A 
ATOM     16 C16  LIG A   1      -2.631   0.815  -1.832  1.00 20.00    -0.019 A 
ATOM     17 C17  LIG A   1      -3.914   0.991  -2.372  1.00 20.00    -0.049 A 
ATOM     18 C18  LIG A   1      -5.036   0.860  -1.558  1.00 20.00    +0.000 A 
ATOM     19 C19  LIG A   1      -6.320   1.020  -2.025  1.00 20.00    -0.053 A 
ATOM     20 C20  LIG A   1      -7.429   0.882  -1.173  1.00 20.00    -0.062 A 
ATOM     21 C21  LIG A   1      -7.256   0.579   0.158  1.00 20.00    -0.060 A 
ATOM     22 C22  LIG A   1      -5.966   0.420   0.615  1.00 20.00    -0.036 A 
ATOM     23 C23  LIG A   1      -4.885   0.559  -0.226  1.00 20.00    +0.073 A 
ATOM     24 N24  LIG A   1      -3.651   0.391   0.291  1.00 20.00    -0.231 NA
ATOM     25 H25  LIG A   1      -2.798   0.137   0.393  1.00 20.00    +0.000 H 
ATOM     26 H26  LIG A   1      -1.950   0.487  -1.137  1.00 20.00    +0.000 H 
ATOM     27 H27  LIG A   1      -1.435   1.258   0.454  1.00 20.00    +0.000 H 
ATOM     28 H28  LIG A   1      -1.298  -1.496   0.849  1.00 20.00    +0.000 H 
ATOM     29 H29  LIG A   1      -0.514  -1.258  -0.798  1.00 20.00    +0.000 H 
ATOM     30 H30  LIG A   1       2.364   1.381  -0.271  1.00 20.00    +0.000 H 
ATOM     31 H31  LIG A   1       2.046  -0.122  -1.237  1.00 20.00    +0.000 H 
ATOM     32 H32  LIG A   1       3.188  -0.160   0.119  1.00 20.00    +0.000 H 
ATOM     33 H33  LIG A   1       5.761   0.879  -2.558  1.00 20.00    +0.118 HD
ATOM     34 H34  LIG A   1       5.317   2.227  -1.698  1.00 20.00    +0.118 HD
ATOM     35 H35  LIG A   1       7.093   0.913  -0.766  1.00 20.00    +0.043 H 
ATOM     36 H36  LIG A   1       5.841   1.349   0.382  1.00 20.00    +0.043 H 
ATOM     37 H37  LIG A   1       6.356  -1.271  -1.137  1.00 20.00    +0.028 H 
ATOM     38 H38  LIG A   1       6.588  -0.979   0.585  1.00 20.00    +0.028 H 
ATOM     39 H39  LIG A   1       3.945  -1.108  -0.932  1.00 20.00    +0.028 H 
ATOM     40 H40  LIG A   1       4.594  -2.339   0.176  1.00 20.00    +0.028 H 
ATOM     41 H41  LIG A   1       4.542  -0.866   2.084  1.00 20.00    +0.043 H 
ATOM     42 H42  LIG A   1       3.968   0.519   1.135  1.00 20.00    +0.043 H 
ATOM     43 H43  LIG A   1       2.366  -0.729   2.513  1.00 20.00    +0.122 HD
ATOM     44 H44  LIG A   1       1.378   0.380   0.653  1.00 20.00    +0.043 H 
ATOM     45 H45  LIG A   1       1.711  -0.997  -0.408  1.00 20.00    +0.043 H 
ATOM     46 H46  LIG A   1       0.343  -2.421   1.408  1.00 20.00    +0.030 H 
ATOM     47 H47  LIG A   1       0.066  -0.832   2.209  1.00 20.00    +0.030 H 
ATOM     48 H48  LIG A   1      -0.879  -1.607  -0.589  1.00 20.00    +0.049 H 
ATOM     49 H49  LIG A   1      -1.792  -1.630   0.920  1.00 20.00    +0.049 H 
ATOM     50 H50  LIG A   1      -0.698   1.071   0.506  1.00 20.00    +0.162 HD
ATOM     51 H51  LIG A   1      -1.740   0.906  -2.420  1.00 20.00    +0.066 H 
ATOM     52 H52  LIG A   1      -4.042   1.232  -3.439  1.00 20.00    +0.063 H 
ATOM     53 H53  LIG A   1      -6.445   1.259  -3.057  1.00 20.00    +0.063 H 
ATOM     54 H54  LIG A   1      -8.440   1.009  -1.526  1.00 20.00    +0.062 H 
ATOM     55 H55  LIG A   1      -8.090   0.458   0.849  1.00 20.00    +0.062 H 
ATOM     56 H56  LIG A   1      -5.822   0.187   1.651  1.00 20.00    +0.065 H 
ENDROOT
TORSDOF 0
