MODEL 1
REMARK VINA RESULT:   -12.598      0.000      0.000
REMARK INTER + INTRA:         -12.598
REMARK INTER:                 -12.598
REMARK INTRA:                   0.000
REMARK UNBOUND:                 0.000
ROOT
ATOM      1 C1   LIG A   1      19.558  20.955  10.754  1.00 20.00    -0.060 C 
ATOM      2 C2   LIG A   1      19.267  20.016   9.567  1.00 20.00    -0.016 C 
ATOM      3 C3   LIG A   1      19.679  20.747   8.243  1.00 20.00    -0.023 C 
ATOM      4 C4   LIG A   1      20.903  20.178   7.571  1.00 20.00    -0.044 A 
ATOM      5 C5   LIG A   1      22.172  20.348   8.127  1.00 20.00    -0.058 A 
ATOM      6 C6   LIG A   1      23.205  19.484   7.767  1.00 20.00    -0.054 A 
ATOM      7 C7   LIG A   1      22.965  18.421   6.877  1.00 20.00    +0.009 A 
ATOM      8 C8   LIG A   1      21.725  18.364   6.211  1.00 20.00    +0.130 A 
ATOM      9 C9   LIG A   1      20.726  19.288   6.508  1.00 20.00    -0.016 A 
ATOM     10 O10  LIG A   1      21.501  17.312   5.354  1.00 20.00    -0.464 OA
ATOM     11 C11  LIG A   1      20.242  16.754   5.274  1.00 20.00    +0.104 C 
ATOM     12 C12  LIG A   1      19.623  15.931   6.150  1.00 20.00    +0.082 C 
ATOM     13 C13  LIG A   1      18.400  15.207   5.712  1.00 20.00    -0.010 A 
ATOM     14 C14  LIG A   1      18.308  14.636   4.435  1.00 20.00    -0.052 A 
ATOM     15 C15  LIG A   1      17.160  13.935   4.041  1.00 20.00    -0.038 A 
ATOM     16 C16  LIG A   1      16.088  13.732   4.919  1.00 20.00    +0.034 A 
ATOM     17 N17  LIG A   1      14.949  13.070   4.440  1.00 20.00    -0.385 NA
ATOM     18 C18  LIG A   1      14.075  12.391   5.398  1.00 20.00    +0.016 C 
ATOM     19 C19  LIG A   1      12.914  11.713   4.659  1.00 20.00    -0.023 C 
ATOM     20 C20  LIG A   1      11.831  12.693   4.184  1.00 20.00    -0.003 C 
ATOM     21 N21  LIG A   1      12.292  13.716   3.244  1.00 20.00    -0.317 NA
ATOM     22 C22  LIG A   1      12.443  13.246   1.867  1.00 20.00    -0.005 C 
ATOM     23 C23  LIG A   1      11.125  13.073   1.105  1.00 20.00    -0.039 C 
ATOM     24 C24  LIG A   1      10.406  14.375   0.724  1.00 20.00    -0.040 C 
ATOM     25 C25  LIG A   1       9.903  15.195   1.910  1.00 20.00    -0.008 C 
ATOM     26 N26  LIG A   1       9.026  16.269   1.440  1.00 20.00    -0.330 NA
ATOM     27 C27  LIG A   1      16.171  14.326   6.179  1.00 20.00    -0.038 A 
ATOM     28 C28  LIG A   1      17.314  15.037   6.578  1.00 20.00    -0.052 A 
ATOM     29 C29  LIG A   1      20.231  15.595   7.490  1.00 20.00    +0.264 C 
ATOM     30 O30  LIG A   1      20.367  14.417   7.827  1.00 20.00    -0.268 OA
ATOM     31 N31  LIG A   1      20.605  16.653   8.310  1.00 20.00    -0.277 NA
ATOM     32 C32  LIG A   1      21.803  16.450   9.131  1.00 20.00    +0.029 C 
ATOM     33 C33  LIG A   1      22.990  15.651   8.547  1.00 20.00    -0.034 C 
ATOM     34 C34  LIG A   1      23.487  15.909   7.112  1.00 20.00    -0.034 C 
ATOM     35 C35  LIG A   1      24.012  17.324   6.749  1.00 20.00    +0.085 C 
ATOM     36 C36  LIG A   1      24.665  17.339   5.367  1.00 20.00    +0.311 C 
ATOM     37 O37  LIG A   1      24.527  18.169   4.483  1.00 20.00    -0.252 OA
ATOM     38 O38  LIG A   1      25.548  16.332   5.187  1.00 20.00    -0.481 OA
ATOM     39 C39  LIG A   1      19.610  17.576   8.676  1.00 20.00    +0.246 C 
ATOM     40 O40  LIG A   1      18.487  17.595   8.158  1.00 20.00    -0.273 OA
ATOM     41 C41  LIG A   1      19.897  18.598   9.822  1.00 20.00    +0.088 C 
ATOM     42 N42  LIG A   1      19.339  18.018  11.070  1.00 20.00    -0.320 NA
ATOM     43 C43  LIG A   1      20.219  16.932   8.093  1.00 20.00    -0.048 C 
ATOM     44 C44  LIG A   1      19.571  17.169   6.739  1.00 20.00    +0.015 C 
ATOM     45 N45  LIG A   1      18.446  16.264   6.562  1.00 20.00    -0.357 NA
ATOM     46 C46  LIG A   1      17.705  16.189   5.417  1.00 20.00    +0.195 C 
ATOM     47 N47  LIG A   1      17.960  16.821   4.322  1.00 20.00    -0.269 NA
ATOM     48 N48  LIG A   1      16.643  15.342   5.537  1.00 20.00    -0.298 NA
ATOM     49 C49  LIG A   1      15.603  15.068   4.711  1.00 20.00    +0.192 C 
ATOM     50 N50  LIG A   1      15.338  15.636   3.589  1.00 20.00    -0.269 NA
ATOM     51 N51  LIG A   1      14.774  14.096   5.161  1.00 20.00    -0.370 NA
ATOM     52 H52  LIG A   1      19.149  20.563  11.691  1.00 20.00    +0.023 H 
ATOM     53 H53  LIG A   1      20.635  21.101  10.887  1.00 20.00    +0.023 H 
ATOM     54 H54  LIG A   1      19.100  21.938  10.595  1.00 20.00    +0.023 H 
ATOM     55 H55  LIG A   1      18.173  19.905   9.527  1.00 20.00    +0.032 H 
ATOM     56 H56  LIG A   1      18.830  20.692   7.547  1.00 20.00    +0.032 H 
ATOM     57 H57  LIG A   1      19.835  21.820   8.409  1.00 20.00    +0.032 H 
ATOM     58 H58  LIG A   1      22.338  21.079   8.916  1.00 20.00    +0.063 H 
ATOM     59 H59  LIG A   1      24.167  19.585   8.264  1.00 20.00    +0.063 H 
ATOM     60 H60  LIG A   1      19.748  19.204   6.037  1.00 20.00    +0.067 H 
ATOM     61 H61  LIG A   1      19.848  16.970   4.286  1.00 20.00    +0.105 H 
ATOM     62 H62  LIG A   1      19.129  14.714   3.727  1.00 20.00    +0.063 H 
ATOM     63 H63  LIG A   1      17.121  13.531   3.032  1.00 20.00    +0.064 H 
ATOM     64 H64  LIG A   1      15.199  12.458   3.664  1.00 20.00    +0.160 HD
ATOM     65 H65  LIG A   1      14.650  11.624   5.930  1.00 20.00    +0.049 H 
ATOM     66 H66  LIG A   1      13.667  13.089   6.136  1.00 20.00    +0.049 H 
ATOM     67 H67  LIG A   1      12.439  11.006   5.350  1.00 20.00    +0.030 H 
ATOM     68 H68  LIG A   1      13.290  11.119   3.817  1.00 20.00    +0.030 H 
ATOM     69 H69  LIG A   1      11.436  13.217   5.064  1.00 20.00    +0.043 H 
ATOM     70 H70  LIG A   1      10.985  12.130   3.776  1.00 20.00    +0.043 H 
ATOM     71 H71  LIG A   1      13.212  14.044   3.570  1.00 20.00    +0.122 HD
ATOM     72 H72  LIG A   1      13.055  13.979   1.327  1.00 20.00    +0.043 H 
ATOM     73 H73  LIG A   1      13.009  12.308   1.842  1.00 20.00    +0.043 H 
ATOM     74 H74  LIG A   1      10.436  12.421   1.653  1.00 20.00    +0.028 H 
ATOM     75 H75  LIG A   1      11.355  12.545   0.170  1.00 20.00    +0.028 H 
ATOM     76 H76  LIG A   1       9.555  14.101   0.087  1.00 20.00    +0.028 H 
ATOM     77 H77  LIG A   1      11.069  14.993   0.104  1.00 20.00    +0.028 H 
ATOM     78 H78  LIG A   1       9.350  14.562   2.613  1.00 20.00    +0.043 H 
ATOM     79 H79  LIG A   1      10.739  15.654   2.444  1.00 20.00    +0.043 H 
ATOM     80 H80  LIG A   1       8.692  16.794   2.247  1.00 20.00    +0.118 HD
ATOM     81 H81  LIG A   1       8.201  15.862   1.002  1.00 20.00    +0.118 HD
ATOM     82 H82  LIG A   1      15.350  14.260   6.887  1.00 20.00    +0.064 H 
ATOM     83 H83  LIG A   1      17.329  15.466   7.577  1.00 20.00    +0.063 H 
ATOM     84 H84  LIG A   1      22.210  17.415   9.428  1.00 20.00    +0.050 H 
ATOM     85 H85  LIG A   1      21.477  15.960  10.057  1.00 20.00    +0.050 H 
ATOM     86 H86  LIG A   1      22.747  14.583   8.614  1.00 20.00    +0.029 H 
ATOM     87 H87  LIG A   1      23.840  15.787   9.229  1.00 20.00    +0.029 H 
ATOM     88 H88  LIG A   1      24.315  15.202   6.966  1.00 20.00    +0.028 H 
ATOM     89 H89  LIG A   1      22.737  15.569   6.393  1.00 20.00    +0.028 H 
ATOM     90 H90  LIG A   1      24.829  17.551   7.448  1.00 20.00    +0.047 H 
ATOM     91 H91  LIG A   1      25.890  16.486   4.281  1.00 20.00    +0.296 HD
ATOM     92 H92  LIG A   1      20.961  18.742   9.991  1.00 20.00    +0.057 H 
ATOM     93 H93  LIG A   1      18.325  17.936  10.958  1.00 20.00    +0.119 HD
ATOM     94 H94  LIG A   1      19.674  17.062  11.191  1.00 20.00    +0.119 HD
ATOM     95 H95  LIG A   1      19.510  17.117   8.907  1.00 20.00    +0.025 H 
ATOM     96 H96  LIG A   1      20.571  15.899   8.183  1.00 20.00    +0.025 H 
ATOM     97 H97  LIG A   1      21.075  17.600   8.227  1.00 20.00    +0.025 H 
ATOM     98 H98  LIG A   1      19.226  18.207   6.673  1.00 20.00    +0.049 H 
ATOM     99 H99  LIG A   1      20.316  17.001   5.954  1.00 20.00    +0.049 H 
ATOM    100 H100 LIG A   1      17.891  16.178   7.407  1.00 20.00    +0.163 HD
ATOM    101 H101 LIG A   1      18.802  17.386   4.426  1.00 20.00    +0.191 HD
ATOM    102 H102 LIG A   1      16.610  14.821   6.396  1.00 20.00    +0.173 HD
ATOM    103 H103 LIG A   1      16.106  16.322   3.446  1.00 20.00    +0.191 HD
ATOM    104 H104 LIG A   1      14.054  13.965   4.452  1.00 20.00    +0.159 HD
ATOM    105 H105 LIG A   1      15.253  13.212   5.286  1.00 20.00    +0.159 HD
ENDROOT
TORSDOF 0
                                                                                                            
ENDMDL
MODEL 2
REMARK VINA RESULT:   -12.113      4.914     10.974
REMARK INTER + INTRA:         -12.113
REMARK INTER:                 -12.113
REMARK INTRA:                   0.000
REMARK UNBOUND:                 0.000
ROOT
ATOM      1 C1   LIG A   1      17.717  16.442   7.062  1.00 20.00    -0.060 C 
ATOM      2 C2   LIG A   1      18.235  17.375   8.176  1.00 20.00    -0.016 C 
ATOM      3 C3   LIG A   1      18.097  16.632   9.549  1.00 20.00    -0.023 C 
ATOM      4 C4   LIG A   1      19.407  16.213  10.166  1.00 20.00    -0.044 A 
ATOM      5 C5   LIG A   1      20.162  15.175   9.616  1.00 20.00    -0.058 A 
ATOM      6 C6   LIG A   1      21.523  15.084   9.901  1.00 20.00    -0.054 A 
ATOM      7 C7   LIG A   1      22.146  16.054  10.708  1.00 20.00    +0.009 A 
ATOM      8 C8   LIG A   1      21.341  16.996  11.376  1.00 20.00    +0.130 A 
ATOM      9 C9   LIG A   1      19.965  17.024  11.159  1.00 20.00    -0.016 A 
ATOM     10 O10  LIG A   1      21.966  17.945  12.151  1.00 20.00    -0.464 OA
ATOM     11 C11  LIG A   1      21.462  19.228  12.197  1.00 20.00    +0.104 C 
ATOM     12 C12  LIG A   1      21.544  20.204  11.264  1.00 20.00    +0.082 C 
ATOM     13 C13  LIG A   1      21.202  21.598  11.654  1.00 20.00    -0.010 A 
ATOM     14 C14  LIG A   1      21.610  22.133  12.884  1.00 20.00    -0.052 A 
ATOM     15 C15  LIG A   1      21.304  23.456  13.230  1.00 20.00    -0.038 A 
ATOM     16 C16  LIG A   1      20.629  24.307  12.348  1.00 20.00    +0.034 A 
ATOM     17 N17  LIG A   1      20.307  25.601  12.782  1.00 20.00    -0.385 NA
ATOM     18 C18  LIG A   1      20.100  26.649  11.781  1.00 20.00    +0.016 C 
ATOM     19 C19  LIG A   1      19.789  27.981  12.474  1.00 20.00    -0.023 C 
ATOM     20 C20  LIG A   1      18.360  28.066  13.030  1.00 20.00    -0.003 C 
ATOM     21 N21  LIG A   1      18.030  27.062  14.044  1.00 20.00    -0.317 NA
ATOM     22 C22  LIG A   1      18.547  27.360  15.379  1.00 20.00    -0.005 C 
ATOM     23 C23  LIG A   1      17.773  28.445  16.135  1.00 20.00    -0.039 C 
ATOM     24 C24  LIG A   1      16.375  28.041  16.620  1.00 20.00    -0.040 C 
ATOM     25 C25  LIG A   1      15.372  27.750  15.504  1.00 20.00    -0.008 C 
ATOM     26 N26  LIG A   1      14.024  27.623  16.062  1.00 20.00    -0.330 NA
ATOM     27 C27  LIG A   1      20.199  23.763  11.136  1.00 20.00    -0.038 A 
ATOM     28 C28  LIG A   1      20.494  22.437  10.786  1.00 20.00    -0.052 A 
ATOM     29 C29  LIG A   1      22.132  19.950   9.898  1.00 20.00    +0.264 C 
ATOM     30 O30  LIG A   1      23.032  20.676   9.470  1.00 20.00    -0.268 OA
ATOM     31 N31  LIG A   1      21.612  18.894   9.160  1.00 20.00    -0.277 NA
ATOM     32 C32  LIG A   1      22.560  18.158   8.317  1.00 20.00    +0.029 C 
ATOM     33 C33  LIG A   1      23.999  17.925   8.829  1.00 20.00    -0.034 C 
ATOM     34 C34  LIG A   1      24.259  17.465  10.276  1.00 20.00    -0.034 C 
ATOM     35 C35  LIG A   1      23.667  16.108  10.743  1.00 20.00    +0.085 C 
ATOM     36 C36  LIG A   1      24.204  15.708  12.117  1.00 20.00    +0.311 C 
ATOM     37 O37  LIG A   1      23.579  15.259  13.064  1.00 20.00    -0.252 OA
ATOM     38 O38  LIG A   1      25.548  15.816  12.213  1.00 20.00    -0.481 OA
ATOM     39 C39  LIG A   1      20.236  18.916   8.873  1.00 20.00    +0.246 C 
ATOM     40 O40  LIG A   1      19.452  19.714   9.400  1.00 20.00    -0.273 OA
ATOM     41 C41  LIG A   1      19.659  17.929   7.807  1.00 20.00    +0.088 C 
ATOM     42 N42  LIG A   1      19.592  18.671   6.522  1.00 20.00    -0.320 NA
ATOM     43 C43  LIG A   1      21.155  18.976   9.401  1.00 20.00    -0.048 C 
ATOM     44 C44  LIG A   1      20.607  19.330  10.773  1.00 20.00    +0.015 C 
ATOM     45 N45  LIG A   1      20.446  20.771  10.888  1.00 20.00    -0.357 NA
ATOM     46 C46  LIG A   1      20.038  21.400  12.029  1.00 20.00    +0.195 C 
ATOM     47 N47  LIG A   1      19.843  20.827  13.168  1.00 20.00    -0.269 NA
ATOM     48 N48  LIG A   1      19.864  22.742  11.851  1.00 20.00    -0.298 NA
ATOM     49 C49  LIG A   1      19.363  23.707  12.661  1.00 20.00    +0.192 C 
ATOM     50 N50  LIG A   1      18.843  23.544  13.826  1.00 20.00    -0.269 NA
ATOM     51 N51  LIG A   1      19.423  24.957  12.144  1.00 20.00    -0.370 NA
ATOM     52 H52  LIG A   1      17.643  16.961   6.101  1.00 20.00    +0.023 H 
ATOM     53 H53  LIG A   1      18.376  15.577   6.933  1.00 20.00    +0.023 H 
ATOM     54 H54  LIG A   1      16.713  16.072   7.301  1.00 20.00    +0.023 H 
ATOM     55 H55  LIG A   1      17.534  18.222   8.215  1.00 20.00    +0.032 H 
ATOM     56 H56  LIG A   1      17.571  17.301  10.245  1.00 20.00    +0.032 H 
ATOM     57 H57  LIG A   1      17.449  15.750   9.466  1.00 20.00    +0.032 H 
ATOM     58 H58  LIG A   1      19.722  14.499   8.885  1.00 20.00    +0.063 H 
ATOM     59 H59  LIG A   1      22.109  14.313   9.406  1.00 20.00    +0.063 H 
ATOM     60 H60  LIG A   1      19.354  17.793  11.629  1.00 20.00    +0.067 H 
ATOM     61 H61  LIG A   1      21.089  19.400  13.202  1.00 20.00    +0.105 H 
ATOM     62 H62  LIG A   1      22.184  21.538  13.589  1.00 20.00    +0.063 H 
ATOM     63 H63  LIG A   1      21.619  23.821  14.206  1.00 20.00    +0.064 H 
ATOM     64 H64  LIG A   1      20.958  25.900  13.506  1.00 20.00    +0.160 HD
ATOM     65 H65  LIG A   1      21.015  26.765  11.187  1.00 20.00    +0.049 H 
ATOM     66 H66  LIG A   1      19.278  26.400  11.102  1.00 20.00    +0.049 H 
ATOM     67 H67  LIG A   1      19.903  28.783  11.733  1.00 20.00    +0.030 H 
ATOM     68 H68  LIG A   1      20.522  28.183  13.265  1.00 20.00    +0.030 H 
ATOM     69 H69  LIG A   1      17.660  27.926  12.196  1.00 20.00    +0.043 H 
ATOM     70 H70  LIG A   1      18.174  29.080  13.400  1.00 20.00    +0.043 H 
ATOM     71 H71  LIG A   1      18.439  26.168  13.737  1.00 20.00    +0.122 HD
ATOM     72 H72  LIG A   1      18.505  26.436  15.969  1.00 20.00    +0.043 H 
ATOM     73 H73  LIG A   1      19.608  27.632  15.327  1.00 20.00    +0.043 H 
ATOM     74 H74  LIG A   1      17.705  29.364  15.543  1.00 20.00    +0.028 H 
ATOM     75 H75  LIG A   1      18.362  28.706  17.024  1.00 20.00    +0.028 H 
ATOM     76 H76  LIG A   1      15.996  28.864  17.240  1.00 20.00    +0.028 H 
ATOM     77 H77  LIG A   1      16.452  27.167  17.282  1.00 20.00    +0.028 H 
ATOM     78 H78  LIG A   1      15.378  28.553  14.759  1.00 20.00    +0.043 H 
ATOM     79 H79  LIG A   1      15.617  26.811  15.002  1.00 20.00    +0.043 H 
ATOM     80 H80  LIG A   1      13.372  27.443  15.300  1.00 20.00    +0.118 HD
ATOM     81 H81  LIG A   1      13.746  28.513  16.474  1.00 20.00    +0.118 HD
ATOM     82 H82  LIG A   1      19.617  24.350  10.432  1.00 20.00    +0.064 H 
ATOM     83 H83  LIG A   1      20.146  22.070   9.822  1.00 20.00    +0.063 H 
ATOM     84 H84  LIG A   1      22.159  17.171   8.092  1.00 20.00    +0.050 H 
ATOM     85 H85  LIG A   1      22.615  18.689   7.358  1.00 20.00    +0.050 H 
ATOM     86 H86  LIG A   1      24.567  18.852   8.682  1.00 20.00    +0.029 H 
ATOM     87 H87  LIG A   1      24.471  17.198   8.154  1.00 20.00    +0.029 H 
ATOM     88 H88  LIG A   1      25.352  17.395  10.361  1.00 20.00    +0.028 H 
ATOM     89 H89  LIG A   1      24.003  18.268  10.972  1.00 20.00    +0.028 H 
ATOM     90 H90  LIG A   1      24.050  15.339  10.058  1.00 20.00    +0.047 H 
ATOM     91 H91  LIG A   1      25.738  15.512  13.126  1.00 20.00    +0.296 HD
ATOM     92 H92  LIG A   1      20.308  17.074   7.643  1.00 20.00    +0.057 H 
ATOM     93 H93  LIG A   1      18.933  19.445   6.635  1.00 20.00    +0.119 HD
ATOM     94 H94  LIG A   1      20.491  19.111   6.326  1.00 20.00    +0.119 HD
ATOM     95 H95  LIG A   1      20.471  19.301   8.608  1.00 20.00    +0.025 H 
ATOM     96 H96  LIG A   1      22.122  19.460   9.228  1.00 20.00    +0.025 H 
ATOM     97 H97  LIG A   1      21.291  17.895   9.312  1.00 20.00    +0.025 H 
ATOM     98 H98  LIG A   1      19.640  18.836  10.922  1.00 20.00    +0.049 H 
ATOM     99 H99  LIG A   1      21.302  18.967  11.538  1.00 20.00    +0.049 H 
ATOM    100 H100 LIG A   1      20.061  21.179  10.043  1.00 20.00    +0.163 HD
ATOM    101 H101 LIG A   1      20.044  19.830  13.102  1.00 20.00    +0.191 HD
ATOM    102 H102 LIG A   1      20.153  23.093  10.955  1.00 20.00    +0.173 HD
ATOM    103 H103 LIG A   1      18.921  22.525  14.016  1.00 20.00    +0.191 HD
ATOM    104 H104 LIG A   1      19.042  25.590  12.845  1.00 20.00    +0.159 HD
ATOM    105 H105 LIG A   1      20.374  25.244  11.947  1.00 20.00    +0.159 HD
ENDROOT
TORSDOF 0
                                                                                                            
ENDMDL
MODEL 3
REMARK VINA RESULT:   -12.049      7.555     12.471
REMARK INTER + INTRA:         -12.049
REMARK INTER:                 -12.049
REMARK INTRA:                   0.000
REMARK UNBOUND:                 0.000
ROOT
ATOM      1 C1   LIG A   1      20.038  20.450   6.597  1.00 20.00    -0.060 C 
ATOM      2 C2   LIG A   1      19.950  21.085   7.999  1.00 20.00    -0.016 C 
ATOM      3 C3   LIG A   1      19.547  19.971   9.024  1.00 20.00    -0.023 C 
ATOM      4 C4   LIG A   1      20.647  19.566   9.972  1.00 20.00    -0.044 A 
ATOM      5 C5   LIG A   1      21.749  18.835   9.524  1.00 20.00    -0.058 A 
ATOM      6 C6   LIG A   1      22.931  18.844  10.263  1.00 20.00    -0.054 A 
ATOM      7 C7   LIG A   1      23.030  19.615  11.435  1.00 20.00    +0.009 A 
ATOM      8 C8   LIG A   1      21.865  20.215  11.950  1.00 20.00    +0.130 A 
ATOM      9 C9   LIG A   1      20.662  20.126  11.253  1.00 20.00    -0.016 A 
ATOM     10 O10  LIG A   1      21.981  20.976  13.090  1.00 20.00    -0.464 OA
ATOM     11 C11  LIG A   1      21.218  22.116  13.229  1.00 20.00    +0.104 C 
ATOM     12 C12  LIG A   1      21.376  23.320  12.632  1.00 20.00    +0.082 C 
ATOM     13 C13  LIG A   1      20.627  24.488  13.166  1.00 20.00    -0.010 A 
ATOM     14 C14  LIG A   1      20.488  24.699  14.546  1.00 20.00    -0.052 A 
ATOM     15 C15  LIG A   1      19.802  25.817  15.038  1.00 20.00    -0.038 A 
ATOM     16 C16  LIG A   1      19.275  26.789  14.180  1.00 20.00    +0.034 A 
ATOM     17 N17  LIG A   1      18.552  27.852  14.739  1.00 20.00    -0.385 NA
ATOM     18 C18  LIG A   1      18.451  29.106  13.990  1.00 20.00    +0.016 C 
ATOM     19 C19  LIG A   1      17.646  30.134  14.796  1.00 20.00    -0.023 C 
ATOM     20 C20  LIG A   1      16.133  29.871  14.791  1.00 20.00    -0.003 C 
ATOM     21 N21  LIG A   1      15.726  28.586  15.362  1.00 20.00    -0.317 NA
ATOM     22 C22  LIG A   1      15.707  28.555  16.824  1.00 20.00    -0.005 C 
ATOM     23 C23  LIG A   1      14.511  29.270  17.462  1.00 20.00    -0.039 C 
ATOM     24 C24  LIG A   1      13.157  28.567  17.295  1.00 20.00    -0.040 C 
ATOM     25 C25  LIG A   1      12.657  28.479  15.854  1.00 20.00    -0.008 C 
ATOM     26 N26  LIG A   1      11.265  28.025  15.833  1.00 20.00    -0.330 NA
ATOM     27 C27  LIG A   1      19.389  26.563  12.807  1.00 20.00    -0.038 A 
ATOM     28 C28  LIG A   1      20.068  25.441  12.307  1.00 20.00    -0.052 A 
ATOM     29 C29  LIG A   1      22.413  23.545  11.559  1.00 20.00    +0.264 C 
ATOM     30 O30  LIG A   1      23.218  24.472  11.665  1.00 20.00    -0.268 OA
ATOM     31 N31  LIG A   1      22.406  22.685  10.468  1.00 20.00    -0.277 NA
ATOM     32 C32  LIG A   1      23.713  22.348   9.894  1.00 20.00    +0.029 C 
ATOM     33 C33  LIG A   1      24.925  22.167  10.835  1.00 20.00    -0.034 C 
ATOM     34 C34  LIG A   1      24.801  21.351  12.135  1.00 20.00    -0.034 C 
ATOM     35 C35  LIG A   1      24.407  19.853  12.039  1.00 20.00    +0.085 C 
ATOM     36 C36  LIG A   1      24.549  19.151  13.390  1.00 20.00    +0.311 C 
ATOM     37 O37  LIG A   1      23.768  18.373  13.915  1.00 20.00    -0.252 OA
ATOM     38 O38  LIG A   1      25.731  19.400  13.995  1.00 20.00    -0.481 OA
ATOM     39 C39  LIG A   1      21.226  22.609   9.706  1.00 20.00    +0.246 C 
ATOM     40 O40  LIG A   1      20.159  23.116  10.070  1.00 20.00    -0.273 OA
ATOM     41 C41  LIG A   1      21.257  21.901   8.314  1.00 20.00    +0.088 C 
ATOM     42 N42  LIG A   1      21.443  22.963   7.292  1.00 20.00    -0.320 NA
ATOM     43 C43  LIG A   1      21.889  22.635  10.535  1.00 20.00    -0.048 C 
ATOM     44 C44  LIG A   1      20.866  22.508  11.651  1.00 20.00    +0.015 C 
ATOM     45 N45  LIG A   1      20.361  23.823  12.013  1.00 20.00    -0.357 NA
ATOM     46 C46  LIG A   1      19.478  24.043  13.032  1.00 20.00    +0.195 C 
ATOM     47 N47  LIG A   1      19.061  23.148  13.862  1.00 20.00    -0.269 NA
ATOM     48 N48  LIG A   1      19.078  25.345  13.104  1.00 20.00    -0.298 NA
ATOM     49 C49  LIG A   1      18.142  25.966  13.864  1.00 20.00    +0.192 C 
ATOM     50 N50  LIG A   1      17.325  25.412  14.688  1.00 20.00    -0.269 NA
ATOM     51 N51  LIG A   1      18.087  27.309  13.695  1.00 20.00    -0.370 NA
ATOM     52 H52  LIG A   1      20.164  21.207   5.816  1.00 20.00    +0.023 H 
ATOM     53 H53  LIG A   1      20.878  19.750   6.532  1.00 20.00    +0.023 H 
ATOM     54 H54  LIG A   1      19.120  19.901   6.360  1.00 20.00    +0.023 H 
ATOM     55 H55  LIG A   1      19.105  21.788   7.963  1.00 20.00    +0.032 H 
ATOM     56 H56  LIG A   1      18.690  20.339   9.607  1.00 20.00    +0.032 H 
ATOM     57 H57  LIG A   1      19.173  19.073   8.515  1.00 20.00    +0.032 H 
ATOM     58 H58  LIG A   1      21.730  18.344   8.553  1.00 20.00    +0.063 H 
ATOM     59 H59  LIG A   1      23.801  18.328   9.862  1.00 20.00    +0.063 H 
ATOM     60 H60  LIG A   1      19.778  20.642  11.623  1.00 20.00    +0.067 H 
ATOM     61 H61  LIG A   1      20.512  21.945  14.037  1.00 20.00    +0.105 H 
ATOM     62 H62  LIG A   1      20.922  24.007  15.262  1.00 20.00    +0.063 H 
ATOM     63 H63  LIG A   1      19.697  25.926  16.116  1.00 20.00    +0.064 H 
ATOM     64 H64  LIG A   1      18.852  28.014  15.700  1.00 20.00    +0.160 HD
ATOM     65 H65  LIG A   1      19.458  29.505  13.817  1.00 20.00    +0.049 H 
ATOM     66 H66  LIG A   1      17.968  28.958  13.020  1.00 20.00    +0.049 H 
ATOM     67 H67  LIG A   1      17.811  31.122  14.346  1.00 20.00    +0.030 H 
ATOM     68 H68  LIG A   1      18.022  30.195  15.825  1.00 20.00    +0.030 H 
ATOM     69 H69  LIG A   1      15.788  29.885  13.749  1.00 20.00    +0.043 H 
ATOM     70 H70  LIG A   1      15.618  30.704  15.280  1.00 20.00    +0.043 H 
ATOM     71 H71  LIG A   1      16.400  27.877  15.038  1.00 20.00    +0.122 HD
ATOM     72 H72  LIG A   1      15.684  27.504  17.138  1.00 20.00    +0.043 H 
ATOM     73 H73  LIG A   1      16.640  28.966  17.229  1.00 20.00    +0.043 H 
ATOM     74 H74  LIG A   1      14.434  30.303  17.105  1.00 20.00    +0.028 H 
ATOM     75 H75  LIG A   1      14.709  29.340  18.540  1.00 20.00    +0.028 H 
ATOM     76 H76  LIG A   1      12.426  29.123  17.897  1.00 20.00    +0.028 H 
ATOM     77 H77  LIG A   1      13.210  27.559  17.728  1.00 20.00    +0.028 H 
ATOM     78 H78  LIG A   1      12.724  29.455  15.360  1.00 20.00    +0.043 H 
ATOM     79 H79  LIG A   1      13.252  27.762  15.283  1.00 20.00    +0.043 H 
ATOM     80 H80  LIG A   1      10.949  27.987  14.865  1.00 20.00    +0.118 HD
ATOM     81 H81  LIG A   1      10.679  28.717  16.299  1.00 20.00    +0.118 HD
ATOM     82 H82  LIG A   1      18.950  27.245  12.086  1.00 20.00    +0.064 H 
ATOM     83 H83  LIG A   1      20.139  25.323  11.227  1.00 20.00    +0.063 H 
ATOM     84 H84  LIG A   1      23.635  21.423   9.325  1.00 20.00    +0.050 H 
ATOM     85 H85  LIG A   1      23.954  23.133   9.165  1.00 20.00    +0.050 H 
ATOM     86 H86  LIG A   1      25.289  23.163  11.116  1.00 20.00    +0.029 H 
ATOM     87 H87  LIG A   1      25.737  21.731  10.238  1.00 20.00    +0.029 H 
ATOM     88 H88  LIG A   1      25.795  21.402  12.600  1.00 20.00    +0.028 H 
ATOM     89 H89  LIG A   1      24.164  21.882  12.847  1.00 20.00    +0.028 H 
ATOM     90 H90  LIG A   1      25.150  19.367  11.392  1.00 20.00    +0.047 H 
ATOM     91 H91  LIG A   1      25.680  18.876  14.822  1.00 20.00    +0.296 HD
ATOM     92 H92  LIG A   1      22.097  21.220   8.215  1.00 20.00    +0.057 H 
ATOM     93 H93  LIG A   1      20.628  23.581   7.323  1.00 20.00    +0.119 HD
ATOM     94 H94  LIG A   1      22.237  23.553   7.543  1.00 20.00    +0.119 HD
ATOM     95 H95  LIG A   1      21.443  23.081   9.639  1.00 20.00    +0.025 H 
ATOM     96 H96  LIG A   1      22.727  23.269  10.843  1.00 20.00    +0.025 H 
ATOM     97 H97  LIG A   1      22.283  21.651  10.266  1.00 20.00    +0.025 H 
ATOM     98 H98  LIG A   1      20.037  21.872  11.320  1.00 20.00    +0.049 H 
ATOM     99 H99  LIG A   1      21.340  22.036  12.517  1.00 20.00    +0.049 H 
ATOM    100 H100 LIG A   1      20.187  24.402  11.199  1.00 20.00    +0.163 HD
ATOM    101 H101 LIG A   1      19.487  22.247  13.656  1.00 20.00    +0.191 HD
ATOM    102 H102 LIG A   1      19.554  25.972  12.479  1.00 20.00    +0.173 HD
ATOM    103 H103 LIG A   1      17.562  24.400  14.663  1.00 20.00    +0.191 HD
ATOM    104 H104 LIG A   1      17.370  27.660  14.328  1.00 20.00    +0.159 HD
ATOM    105 H105 LIG A   1      18.961  27.761  13.932  1.00 20.00    +0.159 HD
ENDROOT
TORSDOF 0
                                                                                                            
ENDMDL
MODEL 4
REMARK VINA RESULT:   -11.665      5.115     10.564
REMARK INTER + INTRA:         -11.665
REMARK INTER:                 -11.665
REMARK INTRA:                   0.000
REMARK UNBOUND:                 0.000
ROOT
ATOM      1 C1   LIG A   1      19.800  16.783   4.246  1.00 20.00    -0.060 C 
ATOM      2 C2   LIG A   1      19.746  17.456   5.632  1.00 20.00    -0.016 C 
ATOM      3 C3   LIG A   1      18.345  17.162   6.272  1.00 20.00    -0.023 C 
ATOM      4 C4   LIG A   1      18.379  16.209   7.439  1.00 20.00    -0.044 A 
ATOM      5 C5   LIG A   1      18.640  14.851   7.251  1.00 20.00    -0.058 A 
ATOM      6 C6   LIG A   1      19.095  14.080   8.319  1.00 20.00    -0.054 A 
ATOM      7 C7   LIG A   1      19.328  14.672   9.573  1.00 20.00    +0.009 A 
ATOM      8 C8   LIG A   1      18.911  16.000   9.782  1.00 20.00    +0.130 A 
ATOM      9 C9   LIG A   1      18.370  16.739   8.733  1.00 20.00    -0.016 A 
ATOM     10 O10  LIG A   1      19.157  16.569  11.010  1.00 20.00    -0.464 OA
ATOM     11 C11  LIG A   1      19.499  17.902  11.088  1.00 20.00    +0.104 C 
ATOM     12 C12  LIG A   1      20.677  18.494  10.785  1.00 20.00    +0.082 C 
ATOM     13 C13  LIG A   1      20.916  19.889  11.240  1.00 20.00    -0.010 A 
ATOM     14 C14  LIG A   1      20.527  20.318  12.517  1.00 20.00    -0.052 A 
ATOM     15 C15  LIG A   1      20.780  21.628  12.945  1.00 20.00    -0.038 A 
ATOM     16 C16  LIG A   1      21.472  22.541  12.141  1.00 20.00    +0.034 A 
ATOM     17 N17  LIG A   1      21.641  23.851  12.609  1.00 20.00    -0.385 NA
ATOM     18 C18  LIG A   1      22.754  24.647  12.091  1.00 20.00    +0.016 C 
ATOM     19 C19  LIG A   1      22.765  26.029  12.757  1.00 20.00    -0.023 C 
ATOM     20 C20  LIG A   1      21.683  26.978  12.224  1.00 20.00    -0.003 C 
ATOM     21 N21  LIG A   1      20.307  26.514  12.411  1.00 20.00    -0.317 NA
ATOM     22 C22  LIG A   1      19.783  26.707  13.762  1.00 20.00    -0.005 C 
ATOM     23 C23  LIG A   1      19.390  28.150  14.094  1.00 20.00    -0.039 C 
ATOM     24 C24  LIG A   1      18.131  28.671  13.388  1.00 20.00    -0.040 C 
ATOM     25 C25  LIG A   1      18.255  28.788  11.870  1.00 20.00    -0.008 C 
ATOM     26 N26  LIG A   1      17.108  29.520  11.329  1.00 20.00    -0.330 NA
ATOM     27 C27  LIG A   1      21.832  22.121  10.859  1.00 20.00    -0.038 A 
ATOM     28 C28  LIG A   1      21.576  20.813  10.420  1.00 20.00    -0.052 A 
ATOM     29 C29  LIG A   1      21.813  17.726  10.154  1.00 20.00    +0.264 C 
ATOM     30 O30  LIG A   1      22.934  17.753  10.666  1.00 20.00    -0.268 OA
ATOM     31 N31  LIG A   1      21.542  17.018   8.989  1.00 20.00    -0.277 NA
ATOM     32 C32  LIG A   1      22.257  15.750   8.815  1.00 20.00    +0.029 C 
ATOM     33 C33  LIG A   1      22.523  14.860  10.050  1.00 20.00    -0.034 C 
ATOM     34 C34  LIG A   1      21.414  14.593  11.085  1.00 20.00    -0.034 C 
ATOM     35 C35  LIG A   1      20.112  13.889  10.617  1.00 20.00    +0.085 C 
ATOM     36 C36  LIG A   1      19.227  13.506  11.804  1.00 20.00    +0.311 C 
ATOM     37 O37  LIG A   1      18.020  13.646  11.912  1.00 20.00    -0.252 OA
ATOM     38 O38  LIG A   1      19.904  12.875  12.788  1.00 20.00    -0.481 OA
ATOM     39 C39  LIG A   1      21.047  17.741   7.889  1.00 20.00    +0.246 C 
ATOM     40 O40  LIG A   1      20.668  18.915   7.972  1.00 20.00    -0.273 OA
ATOM     41 C41  LIG A   1      21.010  17.064   6.481  1.00 20.00    +0.088 C 
ATOM     42 N42  LIG A   1      22.243  17.484   5.767  1.00 20.00    -0.320 NA
ATOM     43 C43  LIG A   1      21.178  17.378   8.878  1.00 20.00    -0.048 C 
ATOM     44 C44  LIG A   1      20.108  18.207   9.570  1.00 20.00    +0.015 C 
ATOM     45 N45  LIG A   1      20.657  19.493   9.968  1.00 20.00    -0.357 NA
ATOM     46 C46  LIG A   1      19.957  20.431  10.673  1.00 20.00    +0.195 C 
ATOM     47 N47  LIG A   1      18.775  20.267  11.163  1.00 20.00    -0.269 NA
ATOM     48 N48  LIG A   1      20.655  21.593  10.831  1.00 20.00    -0.298 NA
ATOM     49 C49  LIG A   1      20.305  22.798  11.345  1.00 20.00    +0.192 C 
ATOM     50 N50  LIG A   1      19.141  23.153  11.759  1.00 20.00    -0.269 NA
ATOM     51 N51  LIG A   1      21.316  23.698  11.396  1.00 20.00    -0.370 NA
ATOM     52 H52  LIG A   1      20.693  17.080   3.686  1.00 20.00    +0.023 H 
ATOM     53 H53  LIG A   1      19.802  15.691   4.336  1.00 20.00    +0.023 H 
ATOM     54 H54  LIG A   1      18.934  17.072   3.640  1.00 20.00    +0.023 H 
ATOM     55 H55  LIG A   1      19.776  18.539   5.447  1.00 20.00    +0.032 H 
ATOM     56 H56  LIG A   1      17.916  18.119   6.603  1.00 20.00    +0.032 H 
ATOM     57 H57  LIG A   1      17.635  16.781   5.526  1.00 20.00    +0.032 H 
ATOM     58 H58  LIG A   1      18.593  14.411   6.256  1.00 20.00    +0.063 H 
ATOM     59 H59  LIG A   1      19.363  13.042   8.136  1.00 20.00    +0.063 H 
ATOM     60 H60  LIG A   1      18.105  17.785   8.881  1.00 20.00    +0.067 H 
ATOM     61 H61  LIG A   1      18.687  18.423  11.587  1.00 20.00    +0.105 H 
ATOM     62 H62  LIG A   1      20.034  19.639  13.208  1.00 20.00    +0.063 H 
ATOM     63 H63  LIG A   1      20.438  21.924  13.935  1.00 20.00    +0.064 H 
ATOM     64 H64  LIG A   1      21.615  23.865  13.628  1.00 20.00    +0.160 HD
ATOM     65 H65  LIG A   1      23.698  24.138  12.318  1.00 20.00    +0.049 H 
ATOM     66 H66  LIG A   1      22.685  24.776  11.006  1.00 20.00    +0.049 H 
ATOM     67 H67  LIG A   1      23.740  26.494  12.557  1.00 20.00    +0.030 H 
ATOM     68 H68  LIG A   1      22.687  25.930  13.847  1.00 20.00    +0.030 H 
ATOM     69 H69  LIG A   1      21.839  27.102  11.145  1.00 20.00    +0.043 H 
ATOM     70 H70  LIG A   1      21.828  27.974  12.656  1.00 20.00    +0.043 H 
ATOM     71 H71  LIG A   1      20.291  25.505  12.204  1.00 20.00    +0.122 HD
ATOM     72 H72  LIG A   1      18.891  26.077  13.871  1.00 20.00    +0.043 H 
ATOM     73 H73  LIG A   1      20.499  26.339  14.507  1.00 20.00    +0.043 H 
ATOM     74 H74  LIG A   1      20.224  28.837  13.911  1.00 20.00    +0.028 H 
ATOM     75 H75  LIG A   1      19.198  28.196  15.175  1.00 20.00    +0.028 H 
ATOM     76 H76  LIG A   1      17.908  29.660  13.809  1.00 20.00    +0.028 H 
ATOM     77 H77  LIG A   1      17.276  28.028  13.639  1.00 20.00    +0.028 H 
ATOM     78 H78  LIG A   1      19.177  29.312  11.595  1.00 20.00    +0.043 H 
ATOM     79 H79  LIG A   1      18.270  27.798  11.407  1.00 20.00    +0.043 H 
ATOM     80 H80  LIG A   1      17.218  29.598  10.318  1.00 20.00    +0.118 HD
ATOM     81 H81  LIG A   1      17.115  30.472  11.692  1.00 20.00    +0.118 HD
ATOM     82 H82  LIG A   1      22.317  22.797  10.161  1.00 20.00    +0.064 H 
ATOM     83 H83  LIG A   1      21.892  20.536   9.417  1.00 20.00    +0.063 H 
ATOM     84 H84  LIG A   1      21.721  15.123   8.103  1.00 20.00    +0.050 H 
ATOM     85 H85  LIG A   1      23.220  15.987   8.345  1.00 20.00    +0.050 H 
ATOM     86 H86  LIG A   1      23.376  15.281  10.596  1.00 20.00    +0.029 H 
ATOM     87 H87  LIG A   1      22.880  13.889   9.679  1.00 20.00    +0.029 H 
ATOM     88 H88  LIG A   1      21.882  13.952  11.845  1.00 20.00    +0.028 H 
ATOM     89 H89  LIG A   1      21.191  15.511  11.634  1.00 20.00    +0.028 H 
ATOM     90 H90  LIG A   1      20.410  12.930  10.170  1.00 20.00    +0.047 H 
ATOM     91 H91  LIG A   1      19.212  12.680  13.455  1.00 20.00    +0.296 HD
ATOM     92 H92  LIG A   1      21.037  15.980   6.543  1.00 20.00    +0.057 H 
ATOM     93 H93  LIG A   1      22.207  18.499   5.639  1.00 20.00    +0.119 HD
ATOM     94 H94  LIG A   1      23.060  17.317   6.354  1.00 20.00    +0.119 HD
ATOM     95 H95  LIG A   1      21.543  17.881   7.975  1.00 20.00    +0.025 H 
ATOM     96 H96  LIG A   1      22.035  17.214   9.540  1.00 20.00    +0.025 H 
ATOM     97 H97  LIG A   1      20.776  16.404   8.588  1.00 20.00    +0.025 H 
ATOM     98 H98  LIG A   1      19.263  18.358   8.889  1.00 20.00    +0.049 H 
ATOM     99 H99  LIG A   1      19.750  17.662  10.449  1.00 20.00    +0.049 H 
ATOM    100 H100 LIG A   1      21.252  19.892   9.250  1.00 20.00    +0.163 HD
ATOM    101 H101 LIG A   1      18.432  19.330  10.955  1.00 20.00    +0.191 HD
ATOM    102 H102 LIG A   1      21.605  21.566  10.506  1.00 20.00    +0.173 HD
ATOM    103 H103 LIG A   1      18.544  22.309  11.641  1.00 20.00    +0.191 HD
ATOM    104 H104 LIG A   1      20.940  24.546  11.816  1.00 20.00    +0.159 HD
ATOM    105 H105 LIG A   1      22.085  23.377  11.972  1.00 20.00    +0.159 HD
ENDROOT
TORSDOF 0
                                                                                                            
ENDMDL
MODEL 5
REMARK VINA RESULT:   -11.642      5.363      7.561
REMARK INTER + INTRA:         -11.642
REMARK INTER:                 -11.642
REMARK INTRA:                   0.000
REMARK UNBOUND:                 0.000
ROOT
ATOM      1 C1   LIG A   1      19.718  25.051  15.133  1.00 20.00    -0.060 C 
ATOM      2 C2   LIG A   1      19.704  23.915  14.091  1.00 20.00    -0.016 C 
ATOM      3 C3   LIG A   1      18.843  24.375  12.865  1.00 20.00    -0.023 C 
ATOM      4 C4   LIG A   1      19.636  24.654  11.614  1.00 20.00    -0.044 A 
ATOM      5 C5   LIG A   1      20.466  25.774  11.524  1.00 20.00    -0.058 A 
ATOM      6 C6   LIG A   1      21.497  25.796  10.586  1.00 20.00    -0.054 A 
ATOM      7 C7   LIG A   1      21.728  24.682   9.759  1.00 20.00    +0.009 A 
ATOM      8 C8   LIG A   1      20.788  23.634   9.757  1.00 20.00    +0.130 A 
ATOM      9 C9   LIG A   1      19.705  23.660  10.634  1.00 20.00    -0.016 A 
ATOM     10 O10  LIG A   1      21.035  22.547   8.952  1.00 20.00    -0.464 OA
ATOM     11 C11  LIG A   1      20.692  21.284   9.387  1.00 20.00    +0.104 C 
ATOM     12 C12  LIG A   1      21.310  20.508  10.308  1.00 20.00    +0.082 C 
ATOM     13 C13  LIG A   1      20.949  19.068  10.390  1.00 20.00    -0.010 A 
ATOM     14 C14  LIG A   1      20.746  18.299   9.235  1.00 20.00    -0.052 A 
ATOM     15 C15  LIG A   1      20.431  16.937   9.323  1.00 20.00    -0.038 A 
ATOM     16 C16  LIG A   1      20.357  16.280  10.558  1.00 20.00    +0.034 A 
ATOM     17 N17  LIG A   1      19.982  14.929  10.575  1.00 20.00    -0.385 NA
ATOM     18 C18  LIG A   1      20.390  14.100  11.709  1.00 20.00    +0.016 C 
ATOM     19 C19  LIG A   1      19.901  12.660  11.508  1.00 20.00    -0.023 C 
ATOM     20 C20  LIG A   1      18.398  12.480  11.764  1.00 20.00    -0.003 C 
ATOM     21 N21  LIG A   1      17.523  13.268  10.895  1.00 20.00    -0.317 NA
ATOM     22 C22  LIG A   1      17.342  12.711   9.555  1.00 20.00    -0.005 C 
ATOM     23 C23  LIG A   1      16.398  11.505   9.488  1.00 20.00    -0.039 C 
ATOM     24 C24  LIG A   1      14.911  11.818   9.705  1.00 20.00    -0.040 C 
ATOM     25 C25  LIG A   1      14.565  12.330  11.103  1.00 20.00    -0.008 C 
ATOM     26 N26  LIG A   1      13.112  12.356  11.280  1.00 20.00    -0.330 NA
ATOM     27 C27  LIG A   1      20.530  17.054  11.706  1.00 20.00    -0.038 A 
ATOM     28 C28  LIG A   1      20.838  18.421  11.626  1.00 20.00    -0.052 A 
ATOM     29 C29  LIG A   1      22.468  21.020  11.129  1.00 20.00    +0.264 C 
ATOM     30 O30  LIG A   1      23.523  20.384  11.169  1.00 20.00    -0.268 OA
ATOM     31 N31  LIG A   1      22.284  22.204  11.832  1.00 20.00    -0.277 NA
ATOM     32 C32  LIG A   1      23.452  23.083  11.946  1.00 20.00    +0.029 C 
ATOM     33 C33  LIG A   1      24.426  23.199  10.752  1.00 20.00    -0.034 C 
ATOM     34 C34  LIG A   1      23.899  23.365   9.314  1.00 20.00    -0.034 C 
ATOM     35 C35  LIG A   1      23.033  24.609   8.978  1.00 20.00    +0.085 C 
ATOM     36 C36  LIG A   1      22.787  24.728   7.474  1.00 20.00    +0.311 C 
ATOM     37 O37  LIG A   1      21.739  24.989   6.905  1.00 20.00    -0.252 OA
ATOM     38 O38  LIG A   1      23.914  24.592   6.740  1.00 20.00    -0.481 OA
ATOM     39 C39  LIG A   1      21.235  22.250  12.767  1.00 20.00    +0.246 C 
ATOM     40 O40  LIG A   1      20.370  21.371  12.850  1.00 20.00    -0.273 OA
ATOM     41 C41  LIG A   1      21.169  23.431  13.788  1.00 20.00    +0.088 C 
ATOM     42 N42  LIG A   1      21.810  22.956  15.041  1.00 20.00    -0.320 NA
ATOM     43 C43  LIG A   1      21.777  22.080  11.871  1.00 20.00    -0.048 C 
ATOM     44 C44  LIG A   1      20.660  21.469  11.040  1.00 20.00    +0.015 C 
ATOM     45 N45  LIG A   1      20.596  20.035  11.274  1.00 20.00    -0.357 NA
ATOM     46 C46  LIG A   1      19.738  19.198  10.619  1.00 20.00    +0.195 C 
ATOM     47 N47  LIG A   1      18.958  19.539   9.649  1.00 20.00    -0.269 NA
ATOM     48 N48  LIG A   1      19.797  17.919  11.089  1.00 20.00    -0.298 NA
ATOM     49 C49  LIG A   1      19.052  16.818  10.820  1.00 20.00    +0.192 C 
ATOM     50 N50  LIG A   1      18.015  16.754  10.063  1.00 20.00    -0.269 NA
ATOM     51 N51  LIG A   1      19.472  15.693  11.446  1.00 20.00    -0.370 NA
ATOM     52 H52  LIG A   1      20.173  24.731  16.075  1.00 20.00    +0.023 H 
ATOM     53 H53  LIG A   1      20.273  25.920  14.763  1.00 20.00    +0.023 H 
ATOM     54 H54  LIG A   1      18.698  25.376  15.368  1.00 20.00    +0.023 H 
ATOM     55 H55  LIG A   1      19.155  23.082  14.555  1.00 20.00    +0.032 H 
ATOM     56 H56  LIG A   1      18.105  23.588  12.654  1.00 20.00    +0.032 H 
ATOM     57 H57  LIG A   1      18.243  25.262  13.107  1.00 20.00    +0.032 H 
ATOM     58 H58  LIG A   1      20.383  26.583  12.246  1.00 20.00    +0.063 H 
ATOM     59 H59  LIG A   1      22.178  26.644  10.579  1.00 20.00    +0.063 H 
ATOM     60 H60  LIG A   1      19.015  22.820  10.673  1.00 20.00    +0.067 H 
ATOM     61 H61  LIG A   1      19.890  20.921   8.751  1.00 20.00    +0.105 H 
ATOM     62 H62  LIG A   1      20.843  18.740   8.246  1.00 20.00    +0.063 H 
ATOM     63 H63  LIG A   1      20.257  16.385   8.402  1.00 20.00    +0.064 H 
ATOM     64 H64  LIG A   1      20.218  14.489   9.686  1.00 20.00    +0.160 HD
ATOM     65 H65  LIG A   1      21.485  14.094  11.777  1.00 20.00    +0.049 H 
ATOM     66 H66  LIG A   1      19.989  14.483  12.653  1.00 20.00    +0.049 H 
ATOM     67 H67  LIG A   1      20.436  12.017  12.219  1.00 20.00    +0.030 H 
ATOM     68 H68  LIG A   1      20.166  12.301  10.506  1.00 20.00    +0.030 H 
ATOM     69 H69  LIG A   1      18.188  12.786  12.797  1.00 20.00    +0.043 H 
ATOM     70 H70  LIG A   1      18.146  11.414  11.719  1.00 20.00    +0.043 H 
ATOM     71 H71  LIG A   1      17.947  14.202  10.796  1.00 20.00    +0.122 HD
ATOM     72 H72  LIG A   1      16.931  13.501   8.914  1.00 20.00    +0.043 H 
ATOM     73 H73  LIG A   1      18.311  12.445   9.116  1.00 20.00    +0.043 H 
ATOM     74 H74  LIG A   1      16.713  10.720  10.185  1.00 20.00    +0.028 H 
ATOM     75 H75  LIG A   1      16.495  11.070   8.485  1.00 20.00    +0.028 H 
ATOM     76 H76  LIG A   1      14.354  10.892   9.511  1.00 20.00    +0.028 H 
ATOM     77 H77  LIG A   1      14.575  12.545   8.953  1.00 20.00    +0.028 H 
ATOM     78 H78  LIG A   1      15.009  11.688  11.871  1.00 20.00    +0.043 H 
ATOM     79 H79  LIG A   1      14.939  13.347  11.244  1.00 20.00    +0.043 H 
ATOM     80 H80  LIG A   1      12.905  12.687  12.222  1.00 20.00    +0.118 HD
ATOM     81 H81  LIG A   1      12.749  11.406  11.225  1.00 20.00    +0.118 HD
ATOM     82 H82  LIG A   1      20.426  16.622  12.697  1.00 20.00    +0.064 H 
ATOM     83 H83  LIG A   1      20.977  18.972  12.554  1.00 20.00    +0.063 H 
ATOM     84 H84  LIG A   1      23.126  24.099  12.166  1.00 20.00    +0.050 H 
ATOM     85 H85  LIG A   1      24.020  22.750  12.825  1.00 20.00    +0.050 H 
ATOM     86 H86  LIG A   1      25.075  22.315  10.754  1.00 20.00    +0.029 H 
ATOM     87 H87  LIG A   1      25.101  24.040  10.964  1.00 20.00    +0.029 H 
ATOM     88 H88  LIG A   1      24.797  23.408   8.684  1.00 20.00    +0.028 H 
ATOM     89 H89  LIG A   1      23.408  22.444   8.991  1.00 20.00    +0.028 H 
ATOM     90 H90  LIG A   1      23.632  25.495   9.234  1.00 20.00    +0.047 H 
ATOM     91 H91  LIG A   1      23.603  24.710   5.818  1.00 20.00    +0.296 HD
ATOM     92 H92  LIG A   1      21.735  24.297  13.455  1.00 20.00    +0.057 H 
ATOM     93 H93  LIG A   1      21.254  22.180  15.409  1.00 20.00    +0.119 HD
ATOM     94 H94  LIG A   1      22.725  22.556  14.835  1.00 20.00    +0.119 HD
ATOM     95 H95  LIG A   1      21.604  21.923  12.941  1.00 20.00    +0.025 H 
ATOM     96 H96  LIG A   1      22.743  21.631  11.618  1.00 20.00    +0.025 H 
ATOM     97 H97  LIG A   1      21.840  23.157  11.690  1.00 20.00    +0.025 H 
ATOM     98 H98  LIG A   1      19.705  21.933  11.311  1.00 20.00    +0.049 H 
ATOM     99 H99  LIG A   1      20.854  21.670   9.982  1.00 20.00    +0.049 H 
ATOM    100 H100 LIG A   1      20.713  19.804  12.254  1.00 20.00    +0.163 HD
ATOM    101 H101 LIG A   1      19.073  20.528   9.433  1.00 20.00    +0.191 HD
ATOM    102 H102 LIG A   1      20.519  17.748  11.766  1.00 20.00    +0.173 HD
ATOM    103 H103 LIG A   1      17.896  17.715   9.686  1.00 20.00    +0.191 HD
ATOM    104 H104 LIG A   1      18.854  14.938  11.151  1.00 20.00    +0.159 HD
ATOM    105 H105 LIG A   1      20.418  15.442  11.187  1.00 20.00    +0.159 HD
ENDROOT
TORSDOF 0
                                                                                                            
ENDMDL
MODEL 6
REMARK VINA RESULT:   -11.393      3.230      9.342
REMARK INTER + INTRA:         -11.393
REMARK INTER:                 -11.393
REMARK INTRA:                   0.000
REMARK UNBOUND:                 0.000
ROOT
ATOM      1 C1   LIG A   1      14.785  13.581   1.586  1.00 20.00    -0.060 C 
ATOM      2 C2   LIG A   1      15.556  14.305   2.708  1.00 20.00    -0.016 C 
ATOM      3 C3   LIG A   1      14.568  14.574   3.895  1.00 20.00    -0.023 C 
ATOM      4 C4   LIG A   1      14.827  13.741   5.124  1.00 20.00    -0.044 A 
ATOM      5 C5   LIG A   1      14.554  12.372   5.134  1.00 20.00    -0.058 A 
ATOM      6 C6   LIG A   1      15.180  11.550   6.070  1.00 20.00    -0.054 A 
ATOM      7 C7   LIG A   1      16.110  12.087   6.978  1.00 20.00    +0.009 A 
ATOM      8 C8   LIG A   1      16.251  13.486   7.054  1.00 20.00    +0.130 A 
ATOM      9 C9   LIG A   1      15.551  14.310   6.175  1.00 20.00    -0.016 A 
ATOM     10 O10  LIG A   1      17.174  13.995   7.937  1.00 20.00    -0.464 OA
ATOM     11 C11  LIG A   1      17.899  15.117   7.594  1.00 20.00    +0.104 C 
ATOM     12 C12  LIG A   1      18.937  15.225   6.735  1.00 20.00    +0.082 C 
ATOM     13 C13  LIG A   1      19.761  16.463   6.757  1.00 20.00    -0.010 A 
ATOM     14 C14  LIG A   1      20.128  17.074   7.965  1.00 20.00    -0.052 A 
ATOM     15 C15  LIG A   1      20.926  18.226   7.976  1.00 20.00    -0.038 A 
ATOM     16 C16  LIG A   1      21.429  18.780   6.793  1.00 20.00    +0.034 A 
ATOM     17 N17  LIG A   1      22.173  19.965   6.874  1.00 20.00    -0.385 NA
ATOM     18 C18  LIG A   1      23.123  20.274   5.804  1.00 20.00    +0.016 C 
ATOM     19 C19  LIG A   1      23.844  21.593   6.109  1.00 20.00    -0.023 C 
ATOM     20 C20  LIG A   1      22.980  22.838   5.863  1.00 20.00    -0.003 C 
ATOM     21 N21  LIG A   1      21.761  22.914   6.670  1.00 20.00    -0.317 NA
ATOM     22 C22  LIG A   1      21.976  23.359   8.046  1.00 20.00    -0.005 C 
ATOM     23 C23  LIG A   1      22.226  24.863   8.199  1.00 20.00    -0.039 C 
ATOM     24 C24  LIG A   1      21.006  25.763   7.957  1.00 20.00    -0.040 C 
ATOM     25 C25  LIG A   1      20.474  25.742   6.525  1.00 20.00    -0.008 C 
ATOM     26 N26  LIG A   1      19.486  26.807   6.342  1.00 20.00    -0.330 NA
ATOM     27 C27  LIG A   1      21.038  18.187   5.591  1.00 20.00    -0.038 A 
ATOM     28 C28  LIG A   1      20.233  17.037   5.572  1.00 20.00    -0.052 A 
ATOM     29 C29  LIG A   1      19.386  14.064   5.881  1.00 20.00    +0.264 C 
ATOM     30 O30  LIG A   1      20.567  13.712   5.890  1.00 20.00    -0.268 OA
ATOM     31 N31  LIG A   1      18.428  13.438   5.093  1.00 20.00    -0.277 NA
ATOM     32 C32  LIG A   1      18.572  11.989   4.917  1.00 20.00    +0.029 C 
ATOM     33 C33  LIG A   1      19.076  11.134   6.102  1.00 20.00    -0.034 C 
ATOM     34 C34  LIG A   1      18.518  11.345   7.522  1.00 20.00    -0.034 C 
ATOM     35 C35  LIG A   1      16.999  11.134   7.764  1.00 20.00    +0.085 C 
ATOM     36 C36  LIG A   1      16.662  11.164   9.255  1.00 20.00    +0.311 C 
ATOM     37 O37  LIG A   1      15.733  11.737   9.801  1.00 20.00    -0.252 OA
ATOM     38 O38  LIG A   1      17.480  10.387  10.000  1.00 20.00    -0.481 OA
ATOM     39 C39  LIG A   1      17.740  14.228   4.154  1.00 20.00    +0.246 C 
ATOM     40 O40  LIG A   1      17.811  15.462   4.134  1.00 20.00    -0.273 OA
ATOM     41 C41  LIG A   1      16.882  13.532   3.049  1.00 20.00    +0.088 C 
ATOM     42 N42  LIG A   1      17.733  13.437   1.836  1.00 20.00    -0.320 NA
ATOM     43 C43  LIG A   1      18.180  13.898   5.062  1.00 20.00    -0.048 C 
ATOM     44 C44  LIG A   1      17.833  15.095   5.932  1.00 20.00    +0.015 C 
ATOM     45 N45  LIG A   1      18.860  16.116   5.804  1.00 20.00    -0.357 NA
ATOM     46 C46  LIG A   1      18.863  17.282   6.517  1.00 20.00    +0.195 C 
ATOM     47 N47  LIG A   1      18.033  17.583   7.456  1.00 20.00    -0.269 NA
ATOM     48 N48  LIG A   1      19.872  18.119   6.141  1.00 20.00    -0.298 NA
ATOM     49 C49  LIG A   1      20.168  19.396   6.489  1.00 20.00    +0.192 C 
ATOM     50 N50  LIG A   1      19.475  20.171   7.246  1.00 20.00    -0.269 NA
ATOM     51 N51  LIG A   1      21.315  19.871   5.948  1.00 20.00    -0.370 NA
ATOM     52 H52  LIG A   1      15.380  13.504   0.671  1.00 20.00    +0.023 H 
ATOM     53 H53  LIG A   1      14.498  12.570   1.893  1.00 20.00    +0.023 H 
ATOM     54 H54  LIG A   1      13.872  14.129   1.326  1.00 20.00    +0.023 H 
ATOM     55 H55  LIG A   1      15.826  15.292   2.305  1.00 20.00    +0.032 H 
ATOM     56 H56  LIG A   1      14.640  15.638   4.162  1.00 20.00    +0.032 H 
ATOM     57 H57  LIG A   1      13.523  14.434   3.588  1.00 20.00    +0.032 H 
ATOM     58 H58  LIG A   1      13.942  11.923   4.354  1.00 20.00    +0.063 H 
ATOM     59 H59  LIG A   1      15.012  10.476   6.017  1.00 20.00    +0.063 H 
ATOM     60 H60  LIG A   1      15.709  15.388   6.196  1.00 20.00    +0.067 H 
ATOM     61 H61  LIG A   1      17.591  15.923   8.253  1.00 20.00    +0.105 H 
ATOM     62 H62  LIG A   1      19.813  16.660   8.919  1.00 20.00    +0.063 H 
ATOM     63 H63  LIG A   1      21.164  18.681   8.935  1.00 20.00    +0.064 H 
ATOM     64 H64  LIG A   1      22.607  20.044   7.792  1.00 20.00    +0.160 HD
ATOM     65 H65  LIG A   1      23.868  19.472   5.740  1.00 20.00    +0.049 H 
ATOM     66 H66  LIG A   1      22.623  20.358   4.833  1.00 20.00    +0.049 H 
ATOM     67 H67  LIG A   1      24.718  21.662   5.448  1.00 20.00    +0.030 H 
ATOM     68 H68  LIG A   1      24.231  21.591   7.135  1.00 20.00    +0.030 H 
ATOM     69 H69  LIG A   1      22.671  22.837   4.810  1.00 20.00    +0.043 H 
ATOM     70 H70  LIG A   1      23.594  23.737   5.985  1.00 20.00    +0.043 H 
ATOM     71 H71  LIG A   1      21.352  21.969   6.701  1.00 20.00    +0.122 HD
ATOM     72 H72  LIG A   1      21.081  23.101   8.627  1.00 20.00    +0.043 H 
ATOM     73 H73  LIG A   1      22.799  22.800   8.506  1.00 20.00    +0.043 H 
ATOM     74 H74  LIG A   1      23.055  25.190   7.563  1.00 20.00    +0.028 H 
ATOM     75 H75  LIG A   1      22.556  25.036   9.232  1.00 20.00    +0.028 H 
ATOM     76 H76  LIG A   1      21.303  26.788   8.216  1.00 20.00    +0.028 H 
ATOM     77 H77  LIG A   1      20.202  25.488   8.652  1.00 20.00    +0.028 H 
ATOM     78 H78  LIG A   1      21.288  25.880   5.806  1.00 20.00    +0.043 H 
ATOM     79 H79  LIG A   1      19.982  24.789   6.310  1.00 20.00    +0.043 H 
ATOM     80 H80  LIG A   1      19.155  26.783   5.378  1.00 20.00    +0.118 HD
ATOM     81 H81  LIG A   1      19.940  27.711   6.466  1.00 20.00    +0.118 HD
ATOM     82 H82  LIG A   1      21.342  18.601   4.634  1.00 20.00    +0.064 H 
ATOM     83 H83  LIG A   1      19.972  16.609   4.606  1.00 20.00    +0.063 H 
ATOM     84 H84  LIG A   1      17.616  11.559   4.623  1.00 20.00    +0.050 H 
ATOM     85 H85  LIG A   1      19.249  11.835   4.067  1.00 20.00    +0.050 H 
ATOM     86 H86  LIG A   1      20.165  11.249   6.166  1.00 20.00    +0.029 H 
ATOM     87 H87  LIG A   1      18.921  10.081   5.831  1.00 20.00    +0.029 H 
ATOM     88 H88  LIG A   1      19.056  10.622   8.150  1.00 20.00    +0.028 H 
ATOM     89 H89  LIG A   1      18.849  12.310   7.911  1.00 20.00    +0.028 H 
ATOM     90 H90  LIG A   1      16.764  10.109   7.446  1.00 20.00    +0.047 H 
ATOM     91 H91  LIG A   1      17.132  10.494  10.910  1.00 20.00    +0.296 HD
ATOM     92 H92  LIG A   1      16.605  12.516   3.319  1.00 20.00    +0.057 H 
ATOM     93 H93  LIG A   1      17.951  14.386   1.524  1.00 20.00    +0.119 HD
ATOM     94 H94  LIG A   1      18.633  13.018   2.073  1.00 20.00    +0.119 HD
ATOM     95 H95  LIG A   1      18.239  14.183   4.006  1.00 20.00    +0.025 H 
ATOM     96 H96  LIG A   1      19.147  13.473   5.349  1.00 20.00    +0.025 H 
ATOM     97 H97  LIG A   1      17.418  13.120   5.164  1.00 20.00    +0.025 H 
ATOM     98 H98  LIG A   1      16.863  15.503   5.625  1.00 20.00    +0.049 H 
ATOM     99 H99  LIG A   1      17.756  14.766   6.974  1.00 20.00    +0.049 H 
ATOM    100 H100 LIG A   1      19.164  16.231   4.844  1.00 20.00    +0.163 HD
ATOM    101 H101 LIG A   1      17.369  16.824   7.600  1.00 20.00    +0.191 HD
ATOM    102 H102 LIG A   1      20.523  17.732   5.480  1.00 20.00    +0.173 HD
ATOM    103 H103 LIG A   1      18.665  19.595   7.551  1.00 20.00    +0.191 HD
ATOM    104 H104 LIG A   1      21.440  20.820   6.296  1.00 20.00    +0.159 HD
ATOM    105 H105 LIG A   1      22.123  19.328   6.226  1.00 20.00    +0.159 HD
ENDROOT
TORSDOF 0
                                                                                                            
ENDMDL
MODEL 7
REMARK VINA RESULT:   -11.349      2.042      3.083
REMARK INTER + INTRA:         -11.349
REMARK INTER:                 -11.349
REMARK INTRA:                   0.000
REMARK UNBOUND:                 0.000
ROOT
ATOM      1 C1   LIG A   1      20.816  19.780  12.977  1.00 20.00    -0.060 C 
ATOM      2 C2   LIG A   1      20.324  19.324  11.589  1.00 20.00    -0.016 C 
ATOM      3 C3   LIG A   1      19.553  20.513  10.920  1.00 20.00    -0.023 C 
ATOM      4 C4   LIG A   1      20.271  21.146   9.755  1.00 20.00    -0.044 A 
ATOM      5 C5   LIG A   1      21.413  21.924   9.952  1.00 20.00    -0.058 A 
ATOM      6 C6   LIG A   1      22.298  22.131   8.895  1.00 20.00    -0.054 A 
ATOM      7 C7   LIG A   1      22.064  21.530   7.645  1.00 20.00    +0.009 A 
ATOM      8 C8   LIG A   1      20.833  20.884   7.425  1.00 20.00    +0.130 A 
ATOM      9 C9   LIG A   1      19.910  20.759   8.461  1.00 20.00    -0.016 A 
ATOM     10 O10  LIG A   1      20.625  20.291   6.201  1.00 20.00    -0.464 OA
ATOM     11 C11  LIG A   1      19.924  19.105   6.128  1.00 20.00    +0.104 C 
ATOM     12 C12  LIG A   1      20.333  17.858   6.456  1.00 20.00    +0.082 C 
ATOM     13 C13  LIG A   1      19.522  16.696   6.004  1.00 20.00    -0.010 A 
ATOM     14 C14  LIG A   1      18.965  16.651   4.718  1.00 20.00    -0.052 A 
ATOM     15 C15  LIG A   1      18.224  15.540   4.293  1.00 20.00    -0.038 A 
ATOM     16 C16  LIG A   1      18.054  14.417   5.111  1.00 20.00    +0.034 A 
ATOM     17 N17  LIG A   1      17.253  13.365   4.644  1.00 20.00    -0.385 NA
ATOM     18 C18  LIG A   1      17.468  12.022   5.185  1.00 20.00    +0.016 C 
ATOM     19 C19  LIG A   1      16.509  11.029   4.517  1.00 20.00    -0.023 C 
ATOM     20 C20  LIG A   1      15.064  11.131   5.024  1.00 20.00    -0.003 C 
ATOM     21 N21  LIG A   1      14.423  12.430   4.808  1.00 20.00    -0.317 NA
ATOM     22 C22  LIG A   1      13.939  12.645   3.445  1.00 20.00    -0.005 C 
ATOM     23 C23  LIG A   1      12.646  11.899   3.102  1.00 20.00    -0.039 C 
ATOM     24 C24  LIG A   1      11.376  12.432   3.780  1.00 20.00    -0.040 C 
ATOM     25 C25  LIG A   1      11.356  12.282   5.301  1.00 20.00    -0.008 C 
ATOM     26 N26  LIG A   1      10.018  12.584   5.815  1.00 20.00    -0.330 NA
ATOM     27 C27  LIG A   1      18.584  14.477   6.401  1.00 20.00    -0.038 A 
ATOM     28 C28  LIG A   1      19.321  15.589   6.836  1.00 20.00    -0.052 A 
ATOM     29 C29  LIG A   1      21.668  17.606   7.113  1.00 20.00    +0.264 C 
ATOM     30 O30  LIG A   1      22.449  16.787   6.625  1.00 20.00    -0.268 OA
ATOM     31 N31  LIG A   1      21.958  18.314   8.273  1.00 20.00    -0.277 NA
ATOM     32 C32  LIG A   1      23.357  18.707   8.465  1.00 20.00    +0.029 C 
ATOM     33 C33  LIG A   1      24.196  19.131   7.238  1.00 20.00    -0.034 C 
ATOM     34 C34  LIG A   1      23.619  20.089   6.179  1.00 20.00    -0.034 C 
ATOM     35 C35  LIG A   1      23.190  21.514   6.620  1.00 20.00    +0.085 C 
ATOM     36 C36  LIG A   1      22.855  22.394   5.415  1.00 20.00    +0.311 C 
ATOM     37 O37  LIG A   1      21.905  23.147   5.280  1.00 20.00    -0.252 OA
ATOM     38 O38  LIG A   1      23.796  22.347   4.447  1.00 20.00    -0.481 OA
ATOM     39 C39  LIG A   1      21.078  18.170   9.361  1.00 20.00    +0.246 C 
ATOM     40 O40  LIG A   1      19.982  17.606   9.268  1.00 20.00    -0.273 OA
ATOM     41 C41  LIG A   1      21.508  18.693  10.769  1.00 20.00    +0.088 C 
ATOM     42 N42  LIG A   1      22.070  17.534  11.509  1.00 20.00    -0.320 NA
ATOM     43 C43  LIG A   1      21.445  18.318   8.376  1.00 20.00    -0.048 C 
ATOM     44 C44  LIG A   1      20.114  18.481   7.659  1.00 20.00    +0.015 C 
ATOM     45 N45  LIG A   1      19.598  17.178   7.271  1.00 20.00    -0.357 NA
ATOM     46 C46  LIG A   1      18.451  17.000   6.549  1.00 20.00    +0.195 C 
ATOM     47 N47  LIG A   1      17.741  17.946   6.034  1.00 20.00    -0.269 NA
ATOM     48 N48  LIG A   1      18.125  15.684   6.404  1.00 20.00    -0.298 NA
ATOM     49 C49  LIG A   1      17.034  15.072   5.881  1.00 20.00    +0.192 C 
ATOM     50 N50  LIG A   1      15.967  15.639   5.441  1.00 20.00    -0.269 NA
ATOM     51 N51  LIG A   1      17.112  13.720   5.850  1.00 20.00    -0.370 NA
ATOM     52 H52  LIG A   1      21.226  18.947  13.556  1.00 20.00    +0.023 H 
ATOM     53 H53  LIG A   1      21.591  20.549  12.889  1.00 20.00    +0.023 H 
ATOM     54 H54  LIG A   1      19.989  20.197  13.564  1.00 20.00    +0.023 H 
ATOM     55 H55  LIG A   1      19.576  18.539  11.773  1.00 20.00    +0.032 H 
ATOM     56 H56  LIG A   1      18.578  20.136  10.578  1.00 20.00    +0.032 H 
ATOM     57 H57  LIG A   1      19.309  21.295  11.650  1.00 20.00    +0.032 H 
ATOM     58 H58  LIG A   1      21.675  22.281  10.946  1.00 20.00    +0.063 H 
ATOM     59 H59  LIG A   1      23.219  22.678   9.085  1.00 20.00    +0.063 H 
ATOM     60 H60  LIG A   1      18.986  20.206   8.304  1.00 20.00    +0.067 H 
ATOM     61 H61  LIG A   1      18.991  19.304   5.611  1.00 20.00    +0.105 H 
ATOM     62 H62  LIG A   1      19.108  17.469   4.018  1.00 20.00    +0.063 H 
ATOM     63 H63  LIG A   1      17.789  15.559   3.296  1.00 20.00    +0.064 H 
ATOM     64 H64  LIG A   1      17.242  13.359   3.624  1.00 20.00    +0.160 HD
ATOM     65 H65  LIG A   1      18.498  11.711   4.979  1.00 20.00    +0.049 H 
ATOM     66 H66  LIG A   1      17.309  11.995   6.268  1.00 20.00    +0.049 H 
ATOM     67 H67  LIG A   1      16.865  10.014   4.737  1.00 20.00    +0.030 H 
ATOM     68 H68  LIG A   1      16.542  11.138   3.425  1.00 20.00    +0.030 H 
ATOM     69 H69  LIG A   1      15.068  10.949   6.107  1.00 20.00    +0.043 H 
ATOM     70 H70  LIG A   1      14.468  10.319   4.594  1.00 20.00    +0.043 H 
ATOM     71 H71  LIG A   1      15.122  13.157   5.016  1.00 20.00    +0.122 HD
ATOM     72 H72  LIG A   1      13.757  13.720   3.319  1.00 20.00    +0.043 H 
ATOM     73 H73  LIG A   1      14.718  12.388   2.717  1.00 20.00    +0.043 H 
ATOM     74 H74  LIG A   1      12.746  10.826   3.303  1.00 20.00    +0.028 H 
ATOM     75 H75  LIG A   1      12.496  11.987   2.018  1.00 20.00    +0.028 H 
ATOM     76 H76  LIG A   1      10.526  11.884   3.353  1.00 20.00    +0.028 H 
ATOM     77 H77  LIG A   1      11.231  13.487   3.512  1.00 20.00    +0.028 H 
ATOM     78 H78  LIG A   1      11.632  11.264   5.594  1.00 20.00    +0.043 H 
ATOM     79 H79  LIG A   1      12.059  12.978   5.766  1.00 20.00    +0.043 H 
ATOM     80 H80  LIG A   1      10.024  12.465   6.828  1.00 20.00    +0.118 HD
ATOM     81 H81  LIG A   1       9.356  11.901   5.451  1.00 20.00    +0.118 HD
ATOM     82 H82  LIG A   1      18.436  13.666   7.108  1.00 20.00    +0.064 H 
ATOM     83 H83  LIG A   1      19.723  15.575   7.847  1.00 20.00    +0.063 H 
ATOM     84 H84  LIG A   1      23.411  19.539   9.166  1.00 20.00    +0.050 H 
ATOM     85 H85  LIG A   1      23.862  17.865   8.956  1.00 20.00    +0.050 H 
ATOM     86 H86  LIG A   1      24.509  18.222   6.710  1.00 20.00    +0.029 H 
ATOM     87 H87  LIG A   1      25.129  19.569   7.618  1.00 20.00    +0.029 H 
ATOM     88 H88  LIG A   1      24.416  20.200   5.431  1.00 20.00    +0.028 H 
ATOM     89 H89  LIG A   1      22.821  19.590   5.624  1.00 20.00    +0.028 H 
ATOM     90 H90  LIG A   1      24.071  21.987   7.075  1.00 20.00    +0.047 H 
ATOM     91 H91  LIG A   1      23.456  22.965   3.765  1.00 20.00    +0.296 HD
ATOM     92 H92  LIG A   1      22.295  19.440  10.709  1.00 20.00    +0.057 H 
ATOM     93 H93  LIG A   1      21.325  16.845  11.634  1.00 20.00    +0.119 HD
ATOM     94 H94  LIG A   1      22.775  17.066  10.940  1.00 20.00    +0.119 HD
ATOM     95 H95  LIG A   1      21.332  17.719   9.285  1.00 20.00    +0.025 H 
ATOM     96 H96  LIG A   1      22.177  17.819   7.733  1.00 20.00    +0.025 H 
ATOM     97 H97  LIG A   1      21.846  19.296   8.659  1.00 20.00    +0.025 H 
ATOM     98 H98  LIG A   1      19.398  18.981   8.321  1.00 20.00    +0.049 H 
ATOM     99 H99  LIG A   1      20.261  19.106   6.773  1.00 20.00    +0.049 H 
ATOM    100 H100 LIG A   1      19.725  16.485   8.001  1.00 20.00    +0.163 HD
ATOM    101 H101 LIG A   1      18.158  18.853   6.236  1.00 20.00    +0.191 HD
ATOM    102 H102 LIG A   1      18.810  15.035   6.750  1.00 20.00    +0.173 HD
ATOM    103 H103 LIG A   1      16.141  16.659   5.547  1.00 20.00    +0.191 HD
ATOM    104 H104 LIG A   1      16.253  13.380   5.420  1.00 20.00    +0.159 HD
ATOM    105 H105 LIG A   1      17.891  13.395   5.291  1.00 20.00    +0.159 HD
ENDROOT
TORSDOF 0
                                                                                                            
ENDMDL
MODEL 8
REMARK VINA RESULT:   -11.217      4.848      8.265
REMARK INTER + INTRA:         -11.217
REMARK INTER:                 -11.217
REMARK INTRA:                   0.000
REMARK UNBOUND:                 0.000
ROOT
ATOM      1 C1   LIG A   1      17.588  27.075  13.457  1.00 20.00    -0.060 C 
ATOM      2 C2   LIG A   1      18.250  25.891  12.725  1.00 20.00    -0.016 C 
ATOM      3 C3   LIG A   1      18.874  26.419  11.388  1.00 20.00    -0.023 C 
ATOM      4 C4   LIG A   1      20.381  26.449  11.371  1.00 20.00    -0.044 A 
ATOM      5 C5   LIG A   1      21.090  27.377  12.135  1.00 20.00    -0.058 A 
ATOM      6 C6   LIG A   1      22.424  27.132  12.458  1.00 20.00    -0.054 A 
ATOM      7 C7   LIG A   1      23.045  25.938  12.049  1.00 20.00    +0.009 A 
ATOM      8 C8   LIG A   1      22.364  25.094  11.152  1.00 20.00    +0.130 A 
ATOM      9 C9   LIG A   1      21.061  25.392  10.759  1.00 20.00    -0.016 A 
ATOM     10 O10  LIG A   1      22.980  23.924  10.772  1.00 20.00    -0.464 OA
ATOM     11 C11  LIG A   1      22.225  22.786  10.584  1.00 20.00    +0.104 C 
ATOM     12 C12  LIG A   1      21.668  21.975  11.512  1.00 20.00    +0.082 C 
ATOM     13 C13  LIG A   1      21.165  20.641  11.088  1.00 20.00    -0.010 A 
ATOM     14 C14  LIG A   1      21.880  19.844  10.183  1.00 20.00    -0.052 A 
ATOM     15 C15  LIG A   1      21.409  18.578   9.810  1.00 20.00    -0.038 A 
ATOM     16 C16  LIG A   1      20.241  18.039  10.362  1.00 20.00    +0.034 A 
ATOM     17 N17  LIG A   1      19.798  16.791   9.902  1.00 20.00    -0.385 NA
ATOM     18 C18  LIG A   1      18.944  15.982  10.772  1.00 20.00    +0.016 C 
ATOM     19 C19  LIG A   1      18.605  14.653  10.085  1.00 20.00    -0.023 C 
ATOM     20 C20  LIG A   1      17.552  14.785   8.975  1.00 20.00    -0.003 C 
ATOM     21 N21  LIG A   1      17.930  15.663   7.865  1.00 20.00    -0.317 NA
ATOM     22 C22  LIG A   1      18.844  15.056   6.900  1.00 20.00    -0.005 C 
ATOM     23 C23  LIG A   1      18.189  14.054   5.944  1.00 20.00    -0.039 C 
ATOM     24 C24  LIG A   1      17.260  14.663   4.884  1.00 20.00    -0.040 C 
ATOM     25 C25  LIG A   1      16.006  15.331   5.444  1.00 20.00    -0.008 C 
ATOM     26 N26  LIG A   1      15.080  15.650   4.356  1.00 20.00    -0.330 NA
ATOM     27 C27  LIG A   1      19.516  18.846  11.241  1.00 20.00    -0.038 A 
ATOM     28 C28  LIG A   1      19.977  20.118  11.612  1.00 20.00    -0.052 A 
ATOM     29 C29  LIG A   1      21.701  22.310  12.983  1.00 20.00    +0.264 C 
ATOM     30 O30  LIG A   1      22.131  21.487  13.793  1.00 20.00    -0.268 OA
ATOM     31 N31  LIG A   1      21.220  23.556  13.368  1.00 20.00    -0.277 NA
ATOM     32 C32  LIG A   1      21.903  24.198  14.495  1.00 20.00    +0.029 C 
ATOM     33 C33  LIG A   1      23.433  24.038  14.639  1.00 20.00    -0.034 C 
ATOM     34 C34  LIG A   1      24.362  24.199  13.421  1.00 20.00    -0.034 C 
ATOM     35 C35  LIG A   1      24.381  25.559  12.673  1.00 20.00    +0.085 C 
ATOM     36 C36  LIG A   1      25.510  25.614  11.643  1.00 20.00    +0.311 C 
ATOM     37 O37  LIG A   1      25.457  26.030  10.497  1.00 20.00    -0.252 OA
ATOM     38 O38  LIG A   1      26.700  25.211  12.139  1.00 20.00    -0.481 OA
ATOM     39 C39  LIG A   1      19.890  23.871  13.038  1.00 20.00    +0.246 C 
ATOM     40 O40  LIG A   1      19.207  23.183  12.269  1.00 20.00    -0.273 OA
ATOM     41 C41  LIG A   1      19.209  25.113  13.698  1.00 20.00    +0.088 C 
ATOM     42 N42  LIG A   1      18.441  24.615  14.868  1.00 20.00    -0.320 NA
ATOM     43 C43  LIG A   1      20.893  23.535  12.960  1.00 20.00    -0.048 C 
ATOM     44 C44  LIG A   1      20.874  23.093  11.506  1.00 20.00    +0.015 C 
ATOM     45 N45  LIG A   1      20.407  21.719  11.411  1.00 20.00    -0.357 NA
ATOM     46 C46  LIG A   1      20.344  21.018  10.240  1.00 20.00    +0.195 C 
ATOM     47 N47  LIG A   1      20.781  21.433   9.099  1.00 20.00    -0.269 NA
ATOM     48 N48  LIG A   1      19.774  19.789  10.398  1.00 20.00    -0.298 NA
ATOM     49 C49  LIG A   1      19.410  18.837   9.504  1.00 20.00    +0.192 C 
ATOM     50 N50  LIG A   1      19.465  18.919   8.222  1.00 20.00    -0.269 NA
ATOM     51 N51  LIG A   1      18.932  17.699  10.063  1.00 20.00    -0.370 NA
ATOM     52 H52  LIG A   1      17.002  26.742  14.320  1.00 20.00    +0.023 H 
ATOM     53 H53  LIG A   1      18.338  27.791  13.809  1.00 20.00    +0.023 H 
ATOM     54 H54  LIG A   1      16.898  27.607  12.791  1.00 20.00    +0.023 H 
ATOM     55 H55  LIG A   1      17.432  25.216  12.435  1.00 20.00    +0.032 H 
ATOM     56 H56  LIG A   1      18.519  25.776  10.570  1.00 20.00    +0.032 H 
ATOM     57 H57  LIG A   1      18.499  27.420  11.138  1.00 20.00    +0.032 H 
ATOM     58 H58  LIG A   1      20.585  28.238  12.570  1.00 20.00    +0.063 H 
ATOM     59 H59  LIG A   1      22.939  27.830  13.114  1.00 20.00    +0.063 H 
ATOM     60 H60  LIG A   1      20.516  24.705  10.114  1.00 20.00    +0.067 H 
ATOM     61 H61  LIG A   1      22.256  22.540   9.526  1.00 20.00    +0.105 H 
ATOM     62 H62  LIG A   1      22.822  20.185   9.761  1.00 20.00    +0.063 H 
ATOM     63 H63  LIG A   1      21.984  18.005   9.085  1.00 20.00    +0.064 H 
ATOM     64 H64  LIG A   1      20.585  16.250   9.544  1.00 20.00    +0.160 HD
ATOM     65 H65  LIG A   1      19.477  15.770  11.706  1.00 20.00    +0.049 H 
ATOM     66 H66  LIG A   1      18.012  16.503  11.018  1.00 20.00    +0.049 H 
ATOM     67 H67  LIG A   1      18.199  13.972  10.845  1.00 20.00    +0.030 H 
ATOM     68 H68  LIG A   1      19.515  14.178   9.697  1.00 20.00    +0.030 H 
ATOM     69 H69  LIG A   1      16.638  15.200   9.418  1.00 20.00    +0.043 H 
ATOM     70 H70  LIG A   1      17.276  13.788   8.615  1.00 20.00    +0.043 H 
ATOM     71 H71  LIG A   1      18.396  16.488   8.270  1.00 20.00    +0.122 HD
ATOM     72 H72  LIG A   1      19.284  15.862   6.299  1.00 20.00    +0.043 H 
ATOM     73 H73  LIG A   1      19.685  14.577   7.416  1.00 20.00    +0.043 H 
ATOM     74 H74  LIG A   1      17.652  13.275   6.497  1.00 20.00    +0.028 H 
ATOM     75 H75  LIG A   1      18.996  13.537   5.408  1.00 20.00    +0.028 H 
ATOM     76 H76  LIG A   1      16.964  13.851   4.207  1.00 20.00    +0.028 H 
ATOM     77 H77  LIG A   1      17.821  15.384   4.274  1.00 20.00    +0.028 H 
ATOM     78 H78  LIG A   1      15.504  14.673   6.162  1.00 20.00    +0.043 H 
ATOM     79 H79  LIG A   1      16.261  16.265   5.952  1.00 20.00    +0.043 H 
ATOM     80 H80  LIG A   1      14.246  16.082   4.754  1.00 20.00    +0.118 HD
ATOM     81 H81  LIG A   1      14.771  14.786   3.913  1.00 20.00    +0.118 HD
ATOM     82 H82  LIG A   1      18.570  18.514  11.658  1.00 20.00    +0.064 H 
ATOM     83 H83  LIG A   1      19.378  20.697  12.313  1.00 20.00    +0.063 H 
ATOM     84 H84  LIG A   1      21.715  25.271  14.473  1.00 20.00    +0.050 H 
ATOM     85 H85  LIG A   1      21.428  23.826  15.413  1.00 20.00    +0.050 H 
ATOM     86 H86  LIG A   1      23.633  23.047  15.065  1.00 20.00    +0.029 H 
ATOM     87 H87  LIG A   1      23.763  24.746  15.411  1.00 20.00    +0.029 H 
ATOM     88 H88  LIG A   1      25.375  24.021  13.810  1.00 20.00    +0.028 H 
ATOM     89 H89  LIG A   1      24.211  23.368  12.727  1.00 20.00    +0.028 H 
ATOM     90 H90  LIG A   1      24.641  26.328  13.414  1.00 20.00    +0.047 H 
ATOM     91 H91  LIG A   1      27.313  25.320  11.382  1.00 20.00    +0.296 HD
ATOM     92 H92  LIG A   1      19.934  25.827  14.079  1.00 20.00    +0.057 H 
ATOM     93 H93  LIG A   1      17.708  23.989  14.525  1.00 20.00    +0.119 HD
ATOM     94 H94  LIG A   1      19.038  24.032  15.455  1.00 20.00    +0.119 HD
ATOM     95 H95  LIG A   1      19.891  23.492  13.398  1.00 20.00    +0.025 H 
ATOM     96 H96  LIG A   1      21.548  22.891  13.556  1.00 20.00    +0.025 H 
ATOM     97 H97  LIG A   1      21.257  24.564  13.040  1.00 20.00    +0.025 H 
ATOM     98 H98  LIG A   1      20.212  23.751  10.930  1.00 20.00    +0.049 H 
ATOM     99 H99  LIG A   1      21.886  23.176  11.095  1.00 20.00    +0.049 H 
ATOM    100 H100 LIG A   1      19.622  21.541  12.029  1.00 20.00    +0.163 HD
ATOM    101 H101 LIG A   1      21.187  22.362   9.191  1.00 20.00    +0.191 HD
ATOM    102 H102 LIG A   1      19.576  19.531  11.348  1.00 20.00    +0.173 HD
ATOM    103 H103 LIG A   1      19.873  19.856   8.029  1.00 20.00    +0.191 HD
ATOM    104 H104 LIG A   1      18.716  17.059   9.301  1.00 20.00    +0.159 HD
ATOM    105 H105 LIG A   1      19.614  17.252  10.664  1.00 20.00    +0.159 HD
ENDROOT
TORSDOF 0
                                                                                                            
ENDMDL
MODEL 9
REMARK VINA RESULT:   -11.039      7.701     12.561
REMARK INTER + INTRA:         -11.039
REMARK INTER:                 -11.039
REMARK INTRA:                   0.000
REMARK UNBOUND:                 0.000
ROOT
ATOM      1 C1   LIG A   1      22.903  22.675   5.809  1.00 20.00    -0.060 C 
ATOM      2 C2   LIG A   1      22.166  22.872   7.148  1.00 20.00    -0.016 C 
ATOM      3 C3   LIG A   1      20.729  22.259   7.019  1.00 20.00    -0.023 C 
ATOM      4 C4   LIG A   1      20.515  20.997   7.814  1.00 20.00    -0.044 A 
ATOM      5 C5   LIG A   1      21.121  19.798   7.436  1.00 20.00    -0.058 A 
ATOM      6 C6   LIG A   1      21.282  18.779   8.374  1.00 20.00    -0.054 A 
ATOM      7 C7   LIG A   1      20.871  18.969   9.706  1.00 20.00    +0.009 A 
ATOM      8 C8   LIG A   1      20.123  20.118  10.026  1.00 20.00    +0.130 A 
ATOM      9 C9   LIG A   1      19.885  21.092   9.059  1.00 20.00    -0.016 A 
ATOM     10 O10  LIG A   1      19.739  20.295  11.334  1.00 20.00    -0.464 OA
ATOM     11 C11  LIG A   1      19.721  21.564  11.874  1.00 20.00    +0.104 C 
ATOM     12 C12  LIG A   1      20.762  22.332  12.270  1.00 20.00    +0.082 C 
ATOM     13 C13  LIG A   1      20.490  23.531  13.106  1.00 20.00    -0.010 A 
ATOM     14 C14  LIG A   1      19.550  23.499  14.146  1.00 20.00    -0.052 A 
ATOM     15 C15  LIG A   1      19.320  24.627  14.944  1.00 20.00    -0.038 A 
ATOM     16 C16  LIG A   1      20.052  25.809  14.771  1.00 20.00    +0.034 A 
ATOM     17 N17  LIG A   1      19.730  26.917  15.567  1.00 20.00    -0.385 NA
ATOM     18 C18  LIG A   1      20.752  27.939  15.797  1.00 20.00    +0.016 C 
ATOM     19 C19  LIG A   1      20.198  29.037  16.714  1.00 20.00    -0.023 C 
ATOM     20 C20  LIG A   1      19.228  29.996  16.008  1.00 20.00    -0.003 C 
ATOM     21 N21  LIG A   1      18.027  29.366  15.456  1.00 20.00    -0.317 NA
ATOM     22 C22  LIG A   1      16.990  29.074  16.445  1.00 20.00    -0.005 C 
ATOM     23 C23  LIG A   1      16.190  30.296  16.909  1.00 20.00    -0.039 C 
ATOM     24 C24  LIG A   1      15.225  30.887  15.873  1.00 20.00    -0.040 C 
ATOM     25 C25  LIG A   1      15.902  31.485  14.640  1.00 20.00    -0.008 C 
ATOM     26 N26  LIG A   1      14.926  32.234  13.847  1.00 20.00    -0.330 NA
ATOM     27 C27  LIG A   1      20.965  25.848  13.716  1.00 20.00    -0.038 A 
ATOM     28 C28  LIG A   1      21.195  24.724  12.908  1.00 20.00    -0.052 A 
ATOM     29 C29  LIG A   1      22.193  21.914  12.034  1.00 20.00    +0.264 C 
ATOM     30 O30  LIG A   1      22.989  21.887  12.974  1.00 20.00    -0.268 OA
ATOM     31 N31  LIG A   1      22.560  21.583  10.736  1.00 20.00    -0.277 NA
ATOM     32 C32  LIG A   1      23.547  20.509  10.590  1.00 20.00    +0.029 C 
ATOM     33 C33  LIG A   1      23.500  19.307  11.561  1.00 20.00    -0.034 C 
ATOM     34 C34  LIG A   1      22.164  18.623  11.908  1.00 20.00    -0.034 C 
ATOM     35 C35  LIG A   1      21.338  17.978  10.764  1.00 20.00    +0.085 C 
ATOM     36 C36  LIG A   1      20.169  17.160  11.312  1.00 20.00    +0.311 C 
ATOM     37 O37  LIG A   1      19.016  17.141  10.912  1.00 20.00    -0.252 OA
ATOM     38 O38  LIG A   1      20.530  16.321  12.308  1.00 20.00    -0.481 OA
ATOM     39 C39  LIG A   1      22.387  22.562   9.741  1.00 20.00    +0.246 C 
ATOM     40 O40  LIG A   1      21.757  23.609   9.931  1.00 20.00    -0.273 OA
ATOM     41 C41  LIG A   1      23.052  22.359   8.342  1.00 20.00    +0.088 C 
ATOM     42 N42  LIG A   1      24.340  23.099   8.364  1.00 20.00    -0.320 NA
ATOM     43 C43  LIG A   1      22.199  21.923  10.567  1.00 20.00    -0.048 C 
ATOM     44 C44  LIG A   1      20.790  22.385  10.899  1.00 20.00    +0.015 C 
ATOM     45 N45  LIG A   1      20.841  23.530  11.795  1.00 20.00    -0.357 NA
ATOM     46 C46  LIG A   1      19.734  24.128  12.326  1.00 20.00    +0.195 C 
ATOM     47 N47  LIG A   1      18.522  23.704  12.194  1.00 20.00    -0.269 NA
ATOM     48 N48  LIG A   1      20.040  25.243  13.050  1.00 20.00    -0.298 NA
ATOM     49 C49  LIG A   1      19.261  26.188  13.633  1.00 20.00    +0.192 C 
ATOM     50 N50  LIG A   1      17.980  26.281  13.569  1.00 20.00    -0.269 NA
ATOM     51 N51  LIG A   1      19.947  27.120  14.337  1.00 20.00    -0.370 NA
ATOM     52 H52  LIG A   1      23.854  23.218   5.786  1.00 20.00    +0.023 H 
ATOM     53 H53  LIG A   1      23.111  21.616   5.624  1.00 20.00    +0.023 H 
ATOM     54 H54  LIG A   1      22.302  23.054   4.974  1.00 20.00    +0.023 H 
ATOM     55 H55  LIG A   1      22.026  23.957   7.263  1.00 20.00    +0.032 H 
ATOM     56 H56  LIG A   1      20.006  23.018   7.349  1.00 20.00    +0.032 H 
ATOM     57 H57  LIG A   1      20.469  22.063   5.970  1.00 20.00    +0.032 H 
ATOM     58 H58  LIG A   1      21.564  19.688   6.448  1.00 20.00    +0.063 H 
ATOM     59 H59  LIG A   1      21.822  17.881   8.082  1.00 20.00    +0.063 H 
ATOM     60 H60  LIG A   1      19.360  22.008   9.325  1.00 20.00    +0.067 H 
ATOM     61 H61  LIG A   1      18.686  21.822  12.077  1.00 20.00    +0.105 H 
ATOM     62 H62  LIG A   1      18.990  22.594  14.364  1.00 20.00    +0.063 H 
ATOM     63 H63  LIG A   1      18.563  24.565  15.723  1.00 20.00    +0.064 H 
ATOM     64 H64  LIG A   1      19.307  26.609  16.442  1.00 20.00    +0.160 HD
ATOM     65 H65  LIG A   1      21.620  27.478  16.284  1.00 20.00    +0.049 H 
ATOM     66 H66  LIG A   1      21.085  28.394  14.858  1.00 20.00    +0.049 H 
ATOM     67 H67  LIG A   1      21.044  29.633  17.079  1.00 20.00    +0.030 H 
ATOM     68 H68  LIG A   1      19.725  28.595  17.600  1.00 20.00    +0.030 H 
ATOM     69 H69  LIG A   1      19.760  30.466  15.171  1.00 20.00    +0.043 H 
ATOM     70 H70  LIG A   1      18.969  30.816  16.687  1.00 20.00    +0.043 H 
ATOM     71 H71  LIG A   1      18.316  28.475  15.026  1.00 20.00    +0.122 HD
ATOM     72 H72  LIG A   1      16.289  28.359  15.996  1.00 20.00    +0.043 H 
ATOM     73 H73  LIG A   1      17.421  28.563  17.313  1.00 20.00    +0.043 H 
ATOM     74 H74  LIG A   1      16.856  31.083  17.281  1.00 20.00    +0.028 H 
ATOM     75 H75  LIG A   1      15.587  29.983  17.772  1.00 20.00    +0.028 H 
ATOM     76 H76  LIG A   1      14.644  31.668  16.380  1.00 20.00    +0.028 H 
ATOM     77 H77  LIG A   1      14.505  30.119  15.561  1.00 20.00    +0.028 H 
ATOM     78 H78  LIG A   1      16.718  32.155  14.933  1.00 20.00    +0.043 H 
ATOM     79 H79  LIG A   1      16.314  30.695  14.006  1.00 20.00    +0.043 H 
ATOM     80 H80  LIG A   1      15.401  32.635  13.039  1.00 20.00    +0.118 HD
ATOM     81 H81  LIG A   1      14.580  33.021  14.395  1.00 20.00    +0.118 HD
ATOM     82 H82  LIG A   1      21.522  26.752  13.487  1.00 20.00    +0.064 H 
ATOM     83 H83  LIG A   1      21.930  24.807  12.110  1.00 20.00    +0.063 H 
ATOM     84 H84  LIG A   1      23.484  20.087   9.588  1.00 20.00    +0.050 H 
ATOM     85 H85  LIG A   1      24.539  20.973  10.662  1.00 20.00    +0.050 H 
ATOM     86 H86  LIG A   1      23.957  19.617  12.509  1.00 20.00    +0.029 H 
ATOM     87 H87  LIG A   1      24.178  18.540  11.161  1.00 20.00    +0.029 H 
ATOM     88 H88  LIG A   1      22.428  17.825  12.616  1.00 20.00    +0.028 H 
ATOM     89 H89  LIG A   1      21.548  19.297  12.508  1.00 20.00    +0.028 H 
ATOM     90 H90  LIG A   1      21.990  17.241  10.274  1.00 20.00    +0.047 H 
ATOM     91 H91  LIG A   1      19.694  15.862  12.535  1.00 20.00    +0.296 HD
ATOM     92 H92  LIG A   1      23.291  21.318   8.145  1.00 20.00    +0.057 H 
ATOM     93 H93  LIG A   1      24.134  24.094   8.483  1.00 20.00    +0.119 HD
ATOM     94 H94  LIG A   1      24.879  22.836   9.189  1.00 20.00    +0.119 HD
ATOM     95 H95  LIG A   1      22.766  22.715  10.066  1.00 20.00    +0.025 H 
ATOM     96 H96  LIG A   1      22.744  21.644  11.475  1.00 20.00    +0.025 H 
ATOM     97 H97  LIG A   1      22.168  21.054   9.904  1.00 20.00    +0.025 H 
ATOM     98 H98  LIG A   1      20.266  22.660   9.976  1.00 20.00    +0.049 H 
ATOM     99 H99  LIG A   1      20.247  21.561  11.373  1.00 20.00    +0.049 H 
ATOM    100 H100 LIG A   1      21.566  24.188  11.530  1.00 20.00    +0.163 HD
ATOM    101 H101 LIG A   1      18.504  22.851  11.638  1.00 20.00    +0.191 HD
ATOM    102 H102 LIG A   1      21.022  25.412  13.177  1.00 20.00    +0.173 HD
ATOM    103 H103 LIG A   1      17.679  25.463  13.001  1.00 20.00    +0.191 HD
ATOM    104 H104 LIG A   1      19.260  27.754  14.742  1.00 20.00    +0.159 HD
ATOM    105 H105 LIG A   1      20.480  26.711  15.095  1.00 20.00    +0.159 HD
ENDROOT
TORSDOF 0
                                                                                                            
ENDMDL
