ROOT
ATOM      1 C1   LIG A   1       9.406  -0.727   0.253  1.00 20.00    -0.060 C 
ATOM      2 C2   LIG A   1       7.950  -1.214   0.119  1.00 20.00    -0.016 C 
ATOM      3 C3   LIG A   1       7.519  -1.726   1.537  1.00 20.00    -0.023 C 
ATOM      4 C4   LIG A   1       6.044  -1.983   1.673  1.00 20.00    -0.048 A 
ATOM      5 C5   LIG A   1       5.250  -1.082   2.388  1.00 20.00    -0.058 A 
ATOM      6 C6   LIG A   1       3.895  -0.992   2.100  1.00 20.00    -0.051 A 
ATOM      7 C7   LIG A   1       3.367  -1.756   1.056  1.00 20.00    +0.017 A 
ATOM      8 C8   LIG A   1       4.088  -2.862   0.589  1.00 20.00    -0.051 A 
ATOM      9 C9   LIG A   1       5.436  -2.984   0.912  1.00 20.00    -0.058 A 
ATOM     10 C10  LIG A   1       2.207  -1.256   0.288  1.00 20.00    +0.140 C 
ATOM     11 C11  LIG A   1       2.280  -1.029  -1.043  1.00 20.00    +0.047 C 
ATOM     12 C12  LIG A   1       3.509  -0.877  -1.888  1.00 20.00    +0.256 C 
ATOM     13 O13  LIG A   1       3.405  -1.044  -3.101  1.00 20.00    -0.269 OA
ATOM     14 N14  LIG A   1       4.538  -0.161  -1.286  1.00 20.00    -0.278 NA
ATOM     15 C15  LIG A   1       4.468   1.302  -1.428  1.00 20.00    +0.029 C 
ATOM     16 C16  LIG A   1       3.109   1.979  -1.125  1.00 20.00    -0.034 C 
ATOM     17 C17  LIG A   1       2.784   1.995   0.373  1.00 20.00    -0.034 C 
ATOM     18 C18  LIG A   1       1.310   2.257   0.742  1.00 20.00    +0.085 C 
ATOM     19 C19  LIG A   1       1.220   2.440   2.251  1.00 20.00    +0.311 C 
ATOM     20 O20  LIG A   1       1.473   1.615   3.116  1.00 20.00    -0.252 OA
ATOM     21 O21  LIG A   1       0.828   3.684   2.602  1.00 20.00    -0.481 OA
ATOM     22 C22  LIG A   1       0.220   1.302   0.261  1.00 20.00    +0.009 A 
ATOM     23 C23  LIG A   1      -0.870   1.879  -0.418  1.00 20.00    -0.052 A 
ATOM     24 C24  LIG A   1      -1.976   1.120  -0.832  1.00 20.00    -0.038 A 
ATOM     25 C25  LIG A   1      -2.069  -0.241  -0.550  1.00 20.00    +0.038 A 
ATOM     26 N26  LIG A   1      -3.104  -1.062  -0.991  1.00 20.00    -0.385 NA
ATOM     27 C27  LIG A   1      -4.400  -0.536  -1.405  1.00 20.00    +0.016 C 
ATOM     28 C28  LIG A   1      -5.241  -0.124  -0.197  1.00 20.00    -0.023 C 
ATOM     29 C29  LIG A   1      -6.613   0.383  -0.641  1.00 20.00    -0.003 C 
ATOM     30 N30  LIG A   1      -7.417   0.726   0.533  1.00 20.00    -0.317 NA
ATOM     31 C31  LIG A   1      -8.741   1.237   0.177  1.00 20.00    -0.005 C 
ATOM     32 C32  LIG A   1      -9.848   0.278   0.626  1.00 20.00    -0.039 C 
ATOM     33 C33  LIG A   1      -9.889  -1.070  -0.106  1.00 20.00    -0.040 C 
ATOM     34 C34  LIG A   1     -10.126  -0.987  -1.616  1.00 20.00    -0.008 C 
ATOM     35 N35  LIG A   1     -11.403  -0.366  -1.961  1.00 20.00    -0.330 NA
ATOM     36 C36  LIG A   1      -0.980  -0.829   0.098  1.00 20.00    +0.004 A 
ATOM     37 C37  LIG A   1       0.149  -0.084   0.489  1.00 20.00    +0.133 A 
ATOM     38 O38  LIG A   1       1.147  -0.820   1.089  1.00 20.00    -0.456 OA
ATOM     39 C39  LIG A   1       5.777  -0.817  -1.285  1.00 20.00    +0.246 C 
ATOM     40 O40  LIG A   1       5.943  -1.909  -1.842  1.00 20.00    -0.273 OA
ATOM     41 C41  LIG A   1       6.983  -0.136  -0.526  1.00 20.00    +0.088 C 
ATOM     42 N42  LIG A   1       7.704   0.689  -1.523  1.00 20.00    -0.320 NA
ATOM     43 C43  LIG A   1      -4.836  -1.307   0.945  1.00 20.00    -0.056 C 
ATOM     44 C44  LIG A   1      -4.889  -0.580  -0.390  1.00 20.00    -0.002 C 
ATOM     45 S45  LIG A   1      -3.303  -0.684  -1.269  1.00 20.00    -0.087 SA
ATOM     46 C46  LIG A   1      -2.363   0.503  -0.360  1.00 20.00    +0.205 C 
ATOM     47 O47  LIG A   1      -2.894   1.318   0.387  1.00 20.00    -0.285 OA
ATOM     48 C48  LIG A   1      -0.851   0.488  -0.659  1.00 20.00    +0.074 C 
ATOM     49 N49  LIG A   1      -0.523   1.612  -1.564  1.00 20.00    -0.321 NA
ATOM     50 C50  LIG A   1      -0.071   0.609   0.660  1.00 20.00    -0.028 C 
ATOM     51 C51  LIG A   1       1.386   0.137   0.596  1.00 20.00    -0.034 C 
ATOM     52 C52  LIG A   1       2.255   0.868  -0.429  1.00 20.00    +0.018 C 
ATOM     53 N53  LIG A   1       3.666   0.575  -0.208  1.00 20.00    -0.357 NA
ATOM     54 C54  LIG A   1       4.217  -0.611  -0.554  1.00 20.00    +0.185 C 
ATOM     55 N55  LIG A   1       3.626  -1.548  -1.198  1.00 20.00    -0.270 NA
ATOM     56 N56  LIG A   1       5.498  -0.690  -0.140  1.00 20.00    -0.370 NA
ATOM     57 H57  LIG A   1       9.861  -0.550  -0.726  1.00 20.00    +0.023 H 
ATOM     58 H58  LIG A   1      10.022  -1.481   0.755  1.00 20.00    +0.023 H 
ATOM     59 H59  LIG A   1       9.463   0.197   0.838  1.00 20.00    +0.023 H 
ATOM     60 H60  LIG A   1       7.981  -2.090  -0.543  1.00 20.00    +0.032 H 
ATOM     61 H61  LIG A   1       7.829  -0.996   2.297  1.00 20.00    +0.032 H 
ATOM     62 H62  LIG A   1       8.063  -2.651   1.774  1.00 20.00    +0.032 H 
ATOM     63 H63  LIG A   1       5.695  -0.357   3.066  1.00 20.00    +0.063 H 
ATOM     64 H64  LIG A   1       3.306  -0.213   2.577  1.00 20.00    +0.063 H 
ATOM     65 H65  LIG A   1       3.672  -3.523  -0.169  1.00 20.00    +0.063 H 
ATOM     66 H66  LIG A   1       6.034  -3.732   0.393  1.00 20.00    +0.063 H 
ATOM     67 H67  LIG A   1       1.403  -0.730  -1.608  1.00 20.00    +0.072 H 
ATOM     68 H68  LIG A   1       4.733   1.523  -2.470  1.00 20.00    +0.050 H 
ATOM     69 H69  LIG A   1       5.228   1.774  -0.801  1.00 20.00    +0.050 H 
ATOM     70 H70  LIG A   1       2.306   1.524  -1.710  1.00 20.00    +0.029 H 
ATOM     71 H71  LIG A   1       3.164   3.020  -1.467  1.00 20.00    +0.029 H 
ATOM     72 H72  LIG A   1       3.125   1.082   0.839  1.00 20.00    +0.028 H 
ATOM     73 H73  LIG A   1       3.402   2.776   0.836  1.00 20.00    +0.028 H 
ATOM     74 H74  LIG A   1       1.093   3.244   0.305  1.00 20.00    +0.047 H 
ATOM     75 H75  LIG A   1       0.788   3.647   3.582  1.00 20.00    +0.296 HD
ATOM     76 H76  LIG A   1      -0.882   2.945  -0.636  1.00 20.00    +0.063 H 
ATOM     77 H77  LIG A   1      -2.765   1.633  -1.371  1.00 20.00    +0.064 H 
ATOM     78 H78  LIG A   1      -3.182  -1.917  -0.446  1.00 20.00    +0.160 HD
ATOM     79 H79  LIG A   1      -4.921  -1.337  -1.944  1.00 20.00    +0.049 H 
ATOM     80 H80  LIG A   1      -4.295   0.286  -2.122  1.00 20.00    +0.049 H 
ATOM     81 H81  LIG A   1      -4.726   0.657   0.376  1.00 20.00    +0.030 H 
ATOM     82 H82  LIG A   1      -5.360  -0.984   0.476  1.00 20.00    +0.030 H 
ATOM     83 H83  LIG A   1      -6.488   1.262  -1.283  1.00 20.00    +0.043 H 
ATOM     84 H84  LIG A   1      -7.112  -0.397  -1.225  1.00 20.00    +0.043 H 
ATOM     85 H85  LIG A   1      -6.920   1.431   1.078  1.00 20.00    +0.122 HD
ATOM     86 H86  LIG A   1      -8.830   1.480  -0.888  1.00 20.00    +0.043 H 
ATOM     87 H87  LIG A   1      -8.889   2.186   0.707  1.00 20.00    +0.043 H 
ATOM     88 H88  LIG A   1     -10.814   0.785   0.517  1.00 20.00    +0.028 H 
ATOM     89 H89  LIG A   1      -9.739   0.083   1.701  1.00 20.00    +0.028 H 
ATOM     90 H90  LIG A   1     -10.685  -1.681   0.345  1.00 20.00    +0.028 H 
ATOM     91 H91  LIG A   1      -8.955  -1.616   0.073  1.00 20.00    +0.028 H 
ATOM     92 H92  LIG A   1     -10.115  -2.000  -2.035  1.00 20.00    +0.043 H 
ATOM     93 H93  LIG A   1      -9.319  -0.438  -2.111  1.00 20.00    +0.043 H 
ATOM     94 H94  LIG A   1     -11.425   0.598  -1.633  1.00 20.00    +0.118 HD
ATOM     95 H95  LIG A   1     -12.159  -0.849  -1.475  1.00 20.00    +0.118 HD
ATOM     96 H96  LIG A   1      -0.983  -1.899   0.294  1.00 20.00    +0.068 H 
ATOM     97 H97  LIG A   1       6.602   0.517   0.265  1.00 20.00    +0.057 H 
ATOM     98 H98  LIG A   1       7.075   1.301  -2.033  1.00 20.00    +0.119 HD
ATOM     99 H99  LIG A   1       8.390   1.281  -1.059  1.00 20.00    +0.119 HD
ATOM    100 H100 LIG A   1      -5.816  -1.261   1.431  1.00 20.00    +0.024 H 
ATOM    101 H101 LIG A   1      -4.580  -2.365   0.818  1.00 20.00    +0.024 H 
ATOM    102 H102 LIG A   1      -4.109  -0.854   1.628  1.00 20.00    +0.024 H 
ATOM    103 H103 LIG A   1      -5.649  -1.050  -1.024  1.00 20.00    +0.038 H 
ATOM    104 H104 LIG A   1      -5.190   0.464  -0.256  1.00 20.00    +0.038 H 
ATOM    105 H105 LIG A   1      -0.580  -0.458  -1.146  1.00 20.00    +0.055 H 
ATOM    106 H106 LIG A   1      -1.019   1.483  -2.447  1.00 20.00    +0.119 HD
ATOM    107 H107 LIG A   1      -0.896   2.477  -1.162  1.00 20.00    +0.119 HD
ATOM    108 H108 LIG A   1      -0.104   1.644   1.028  1.00 20.00    +0.029 H 
ATOM    109 H109 LIG A   1      -0.575   0.008   1.430  1.00 20.00    +0.029 H 
ATOM    110 H110 LIG A   1       1.822   0.257   1.598  1.00 20.00    +0.029 H 
ATOM    111 H111 LIG A   1       1.402  -0.940   0.389  1.00 20.00    +0.029 H 
ATOM    112 H112 LIG A   1       2.119   1.952  -0.330  1.00 20.00    +0.049 H 
ATOM    113 H113 LIG A   1       1.977   0.593  -1.453  1.00 20.00    +0.049 H 
ATOM    114 H114 LIG A   1       4.010   0.931   0.675  1.00 20.00    +0.163 HD
ATOM    115 H115 LIG A   1       4.258  -2.341  -1.312  1.00 20.00    +0.191 HD
ATOM    116 H116 LIG A   1       6.030  -1.428  -0.579  1.00 20.00    +0.159 HD
ATOM    117 H117 LIG A   1       5.981   0.197  -0.236  1.00 20.00    +0.159 HD
ENDROOT
TORSDOF 0
