MODEL 1
REMARK VINA RESULT:   -12.166      0.000      0.000
REMARK INTER + INTRA:         -12.166
REMARK INTER:                 -12.166
REMARK INTRA:                   0.000
REMARK UNBOUND:                 0.000
ROOT
ATOM      1 C1   LIG A   1      23.792  17.914   5.978  1.00 20.00    -0.060 C 
ATOM      2 C2   LIG A   1      22.708  18.704   6.733  1.00 20.00    -0.016 C 
ATOM      3 C3   LIG A   1      22.142  17.744   7.836  1.00 20.00    -0.023 C 
ATOM      4 C4   LIG A   1      21.264  18.427   8.848  1.00 20.00    -0.048 A 
ATOM      5 C5   LIG A   1      21.756  18.680  10.131  1.00 20.00    -0.058 A 
ATOM      6 C6   LIG A   1      21.217  19.722  10.875  1.00 20.00    -0.051 A 
ATOM      7 C7   LIG A   1      20.239  20.538  10.299  1.00 20.00    +0.017 A 
ATOM      8 C8   LIG A   1      19.547  20.077   9.173  1.00 20.00    -0.051 A 
ATOM      9 C9   LIG A   1      20.056  19.003   8.447  1.00 20.00    -0.058 A 
ATOM     10 C10  LIG A   1      20.125  21.952  10.707  1.00 20.00    +0.140 C 
ATOM     11 C11  LIG A   1      20.282  22.961   9.820  1.00 20.00    +0.047 C 
ATOM     12 C12  LIG A   1      20.917  22.906   8.461  1.00 20.00    +0.256 C 
ATOM     13 O13  LIG A   1      20.650  23.798   7.659  1.00 20.00    -0.269 OA
ATOM     14 N14  LIG A   1      22.050  22.104   8.386  1.00 20.00    -0.278 NA
ATOM     15 C15  LIG A   1      23.318  22.749   8.762  1.00 20.00    +0.029 C 
ATOM     16 C16  LIG A   1      23.333  23.565  10.077  1.00 20.00    -0.034 C 
ATOM     17 C17  LIG A   1      23.289  22.668  11.319  1.00 20.00    -0.034 C 
ATOM     18 C18  LIG A   1      22.884  23.357  12.637  1.00 20.00    +0.085 C 
ATOM     19 C19  LIG A   1      23.096  22.368  13.774  1.00 20.00    +0.311 C 
ATOM     20 O20  LIG A   1      22.511  21.314  13.961  1.00 20.00    -0.252 OA
ATOM     21 O21  LIG A   1      24.077  22.751  14.621  1.00 20.00    -0.481 OA
ATOM     22 C22  LIG A   1      21.515  24.023  12.763  1.00 20.00    +0.009 A 
ATOM     23 C23  LIG A   1      21.505  25.363  13.194  1.00 20.00    -0.052 A 
ATOM     24 C24  LIG A   1      20.310  26.053  13.450  1.00 20.00    -0.038 A 
ATOM     25 C25  LIG A   1      19.071  25.426  13.334  1.00 20.00    +0.038 A 
ATOM     26 N26  LIG A   1      17.850  26.067  13.525  1.00 20.00    -0.385 NA
ATOM     27 C27  LIG A   1      17.727  27.343  14.221  1.00 20.00    +0.016 C 
ATOM     28 C28  LIG A   1      17.883  27.177  15.732  1.00 20.00    -0.023 C 
ATOM     29 C29  LIG A   1      17.760  28.528  16.438  1.00 20.00    -0.003 C 
ATOM     30 N30  LIG A   1      17.857  28.346  17.886  1.00 20.00    -0.317 NA
ATOM     31 C31  LIG A   1      17.829  29.616  18.612  1.00 20.00    -0.005 C 
ATOM     32 C32  LIG A   1      16.624  29.685  19.556  1.00 20.00    -0.039 C 
ATOM     33 C33  LIG A   1      15.256  29.708  18.865  1.00 20.00    -0.040 C 
ATOM     34 C34  LIG A   1      15.005  30.914  17.955  1.00 20.00    -0.008 C 
ATOM     35 N35  LIG A   1      14.989  32.180  18.681  1.00 20.00    -0.330 NA
ATOM     36 C36  LIG A   1      19.070  24.109  12.869  1.00 20.00    +0.004 A 
ATOM     37 C37  LIG A   1      20.260  23.419  12.574  1.00 20.00    +0.133 A 
ATOM     38 O38  LIG A   1      20.082  22.139  12.092  1.00 20.00    -0.456 OA
ATOM     39 C39  LIG A   1      22.020  21.151   7.358  1.00 20.00    +0.246 C 
ATOM     40 O40  LIG A   1      21.089  21.091   6.545  1.00 20.00    -0.273 OA
ATOM     41 C41  LIG A   1      23.207  20.112   7.266  1.00 20.00    +0.088 C 
ATOM     42 N42  LIG A   1      24.219  20.694   6.353  1.00 20.00    -0.320 NA
ATOM     43 O43  LIG A   1      19.444  22.745  10.536  1.00 20.00    -0.504 OA
ATOM     44 C44  LIG A   1      19.834  23.500  11.605  1.00 20.00    +0.157 A 
ATOM     45 C45  LIG A   1      18.874  24.222  12.302  1.00 20.00    -0.016 A 
ATOM     46 C46  LIG A   1      19.255  24.943  13.437  1.00 20.00    -0.058 A 
ATOM     47 C47  LIG A   1      20.587  24.933  13.863  1.00 20.00    -0.058 A 
ATOM     48 C48  LIG A   1      21.549  24.218  13.147  1.00 20.00    -0.016 A 
ATOM     49 C49  LIG A   1      21.166  23.520  12.011  1.00 20.00    +0.157 A 
ATOM     50 O50  LIG A   1      22.122  22.879  11.275  1.00 20.00    -0.504 OA
ATOM     51 H51  LIG A   1      24.105  18.433   5.067  1.00 20.00    +0.023 H 
ATOM     52 H52  LIG A   1      23.411  16.935   5.667  1.00 20.00    +0.023 H 
ATOM     53 H53  LIG A   1      24.673  17.748   6.607  1.00 20.00    +0.023 H 
ATOM     54 H54  LIG A   1      21.900  18.877   6.010  1.00 20.00    +0.032 H 
ATOM     55 H55  LIG A   1      22.977  17.257   8.357  1.00 20.00    +0.032 H 
ATOM     56 H56  LIG A   1      21.573  16.933   7.360  1.00 20.00    +0.032 H 
ATOM     57 H57  LIG A   1      22.642  18.169  10.502  1.00 20.00    +0.063 H 
ATOM     58 H58  LIG A   1      21.679  19.986  11.823  1.00 20.00    +0.063 H 
ATOM     59 H59  LIG A   1      18.727  20.651   8.744  1.00 20.00    +0.063 H 
ATOM     60 H60  LIG A   1      19.625  18.774   7.473  1.00 20.00    +0.063 H 
ATOM     61 H61  LIG A   1      20.124  23.994  10.113  1.00 20.00    +0.072 H 
ATOM     62 H62  LIG A   1      23.574  23.428   7.939  1.00 20.00    +0.050 H 
ATOM     63 H63  LIG A   1      24.114  22.002   8.817  1.00 20.00    +0.050 H 
ATOM     64 H64  LIG A   1      22.533  24.311  10.085  1.00 20.00    +0.029 H 
ATOM     65 H65  LIG A   1      24.268  24.139  10.110  1.00 20.00    +0.029 H 
ATOM     66 H66  LIG A   1      22.658  21.809  11.139  1.00 20.00    +0.028 H 
ATOM     67 H67  LIG A   1      24.292  22.237  11.447  1.00 20.00    +0.028 H 
ATOM     68 H68  LIG A   1      23.641  24.143  12.775  1.00 20.00    +0.047 H 
ATOM     69 H69  LIG A   1      24.084  22.045  15.302  1.00 20.00    +0.296 HD
ATOM     70 H70  LIG A   1      22.440  25.901  13.352  1.00 20.00    +0.063 H 
ATOM     71 H71  LIG A   1      20.385  27.091  13.759  1.00 20.00    +0.064 H 
ATOM     72 H72  LIG A   1      17.094  25.421  13.738  1.00 20.00    +0.160 HD
ATOM     73 H73  LIG A   1      16.727  27.737  14.008  1.00 20.00    +0.049 H 
ATOM     74 H74  LIG A   1      18.430  28.083  13.823  1.00 20.00    +0.049 H 
ATOM     75 H75  LIG A   1      18.855  26.726  15.968  1.00 20.00    +0.030 H 
ATOM     76 H76  LIG A   1      17.117  26.486  16.106  1.00 20.00    +0.030 H 
ATOM     77 H77  LIG A   1      18.554  29.194  16.084  1.00 20.00    +0.043 H 
ATOM     78 H78  LIG A   1      16.797  28.982  16.185  1.00 20.00    +0.043 H 
ATOM     79 H79  LIG A   1      18.722  27.850  18.105  1.00 20.00    +0.122 HD
ATOM     80 H80  LIG A   1      17.858  30.488  17.947  1.00 20.00    +0.043 H 
ATOM     81 H81  LIG A   1      18.741  29.677  19.220  1.00 20.00    +0.043 H 
ATOM     82 H82  LIG A   1      16.732  30.568  20.199  1.00 20.00    +0.028 H 
ATOM     83 H83  LIG A   1      16.653  28.822  20.234  1.00 20.00    +0.028 H 
ATOM     84 H84  LIG A   1      14.478  29.678  19.639  1.00 20.00    +0.028 H 
ATOM     85 H85  LIG A   1      15.128  28.793  18.275  1.00 20.00    +0.028 H 
ATOM     86 H86  LIG A   1      14.033  30.792  17.462  1.00 20.00    +0.043 H 
ATOM     87 H87  LIG A   1      15.752  30.968  17.158  1.00 20.00    +0.043 H 
ATOM     88 H88  LIG A   1      15.877  32.328  19.155  1.00 20.00    +0.118 HD
ATOM     89 H89  LIG A   1      14.280  32.142  19.412  1.00 20.00    +0.118 HD
ATOM     90 H90  LIG A   1      18.123  23.596  12.708  1.00 20.00    +0.068 H 
ATOM     91 H91  LIG A   1      23.660  19.978   8.254  1.00 20.00    +0.057 H 
ATOM     92 H92  LIG A   1      24.453  21.647   6.611  1.00 20.00    +0.119 HD
ATOM     93 H93  LIG A   1      25.078  20.151   6.397  1.00 20.00    +0.119 HD
ATOM     94 H94  LIG A   1      20.021  21.960  10.539  1.00 20.00    +0.293 HD
ATOM     95 H95  LIG A   1      17.838  24.211  11.978  1.00 20.00    +0.066 H 
ATOM     96 H96  LIG A   1      18.511  25.506  13.995  1.00 20.00    +0.062 H 
ATOM     97 H97  LIG A   1      20.878  25.490  14.751  1.00 20.00    +0.062 H 
ATOM     98 H98  LIG A   1      22.586  24.222  13.465  1.00 20.00    +0.066 H 
ATOM     99 H99  LIG A   1      21.892  23.043  10.342  1.00 20.00    +0.293 HD
ENDROOT
TORSDOF 0
                                                                                                      
ENDMDL
MODEL 2
REMARK VINA RESULT:   -12.042      3.572      6.102
REMARK INTER + INTRA:         -12.042
REMARK INTER:                 -12.042
REMARK INTRA:                   0.000
REMARK UNBOUND:                 0.000
ROOT
ATOM      1 C1   LIG A   1      20.511  11.829   3.647  1.00 20.00    -0.060 C 
ATOM      2 C2   LIG A   1      20.148  13.262   4.076  1.00 20.00    -0.016 C 
ATOM      3 C3   LIG A   1      18.670  13.213   4.596  1.00 20.00    -0.023 C 
ATOM      4 C4   LIG A   1      18.230  14.462   5.308  1.00 20.00    -0.048 A 
ATOM      5 C5   LIG A   1      18.116  14.459   6.701  1.00 20.00    -0.058 A 
ATOM      6 C6   LIG A   1      18.236  15.655   7.397  1.00 20.00    -0.051 A 
ATOM      7 C7   LIG A   1      18.534  16.827   6.695  1.00 20.00    +0.017 A 
ATOM      8 C8   LIG A   1      18.322  16.863   5.312  1.00 20.00    -0.051 A 
ATOM      9 C9   LIG A   1      18.155  15.671   4.613  1.00 20.00    -0.058 A 
ATOM     10 C10  LIG A   1      19.300  17.906   7.353  1.00 20.00    +0.140 C 
ATOM     11 C11  LIG A   1      20.494  18.321   6.873  1.00 20.00    +0.047 C 
ATOM     12 C12  LIG A   1      21.400  17.613   5.909  1.00 20.00    +0.256 C 
ATOM     13 O13  LIG A   1      22.241  18.276   5.307  1.00 20.00    -0.269 OA
ATOM     14 N14  LIG A   1      21.482  16.238   6.098  1.00 20.00    -0.278 NA
ATOM     15 C15  LIG A   1      22.470  15.786   7.090  1.00 20.00    +0.029 C 
ATOM     16 C16  LIG A   1      22.482  16.511   8.458  1.00 20.00    -0.034 C 
ATOM     17 C17  LIG A   1      21.273  16.139   9.323  1.00 20.00    -0.034 C 
ATOM     18 C18  LIG A   1      20.963  17.089  10.496  1.00 20.00    +0.085 C 
ATOM     19 C19  LIG A   1      19.875  16.453  11.348  1.00 20.00    +0.311 C 
ATOM     20 O20  LIG A   1      18.722  16.217  11.027  1.00 20.00    -0.252 OA
ATOM     21 O21  LIG A   1      20.312  16.111  12.580  1.00 20.00    -0.481 OA
ATOM     22 C22  LIG A   1      20.632  18.556  10.225  1.00 20.00    +0.009 A 
ATOM     23 C23  LIG A   1      21.391  19.513  10.926  1.00 20.00    -0.052 A 
ATOM     24 C24  LIG A   1      21.116  20.886  10.844  1.00 20.00    -0.038 A 
ATOM     25 C25  LIG A   1      20.042  21.368  10.099  1.00 20.00    +0.038 A 
ATOM     26 N26  LIG A   1      19.746  22.719   9.938  1.00 20.00    -0.385 NA
ATOM     27 C27  LIG A   1      20.281  23.755  10.813  1.00 20.00    +0.016 C 
ATOM     28 C28  LIG A   1      19.584  23.758  12.173  1.00 20.00    -0.023 C 
ATOM     29 C29  LIG A   1      20.169  24.846  13.075  1.00 20.00    -0.003 C 
ATOM     30 N30  LIG A   1      19.455  24.873  14.352  1.00 20.00    -0.317 NA
ATOM     31 C31  LIG A   1      20.025  25.840  15.290  1.00 20.00    -0.005 C 
ATOM     32 C32  LIG A   1      19.000  26.916  15.665  1.00 20.00    -0.039 C 
ATOM     33 C33  LIG A   1      18.571  27.834  14.515  1.00 20.00    -0.040 C 
ATOM     34 C34  LIG A   1      19.692  28.677  13.901  1.00 20.00    -0.008 C 
ATOM     35 N35  LIG A   1      20.266  29.633  14.842  1.00 20.00    -0.330 NA
ATOM     36 C36  LIG A   1      19.307  20.430   9.369  1.00 20.00    +0.004 A 
ATOM     37 C37  LIG A   1      19.597  19.054   9.413  1.00 20.00    +0.133 A 
ATOM     38 O38  LIG A   1      18.801  18.268   8.607  1.00 20.00    -0.456 OA
ATOM     39 C39  LIG A   1      21.238  15.477   4.946  1.00 20.00    +0.246 C 
ATOM     40 O40  LIG A   1      21.044  16.000   3.842  1.00 20.00    -0.273 OA
ATOM     41 C41  LIG A   1      21.190  13.904   5.085  1.00 20.00    +0.088 C 
ATOM     42 N42  LIG A   1      22.559  13.404   4.818  1.00 20.00    -0.320 NA
ATOM     43 O43  LIG A   1      19.567  18.904   7.122  1.00 20.00    -0.504 OA
ATOM     44 C44  LIG A   1      19.848  19.276   8.406  1.00 20.00    +0.157 A 
ATOM     45 C45  LIG A   1      19.530  20.564   8.816  1.00 20.00    -0.016 A 
ATOM     46 C46  LIG A   1      19.754  20.929  10.146  1.00 20.00    -0.058 A 
ATOM     47 C47  LIG A   1      20.288  20.006  11.050  1.00 20.00    -0.058 A 
ATOM     48 C48  LIG A   1      20.620  18.718  10.625  1.00 20.00    -0.016 A 
ATOM     49 C49  LIG A   1      20.413  18.369   9.298  1.00 20.00    +0.157 A 
ATOM     50 O50  LIG A   1      20.804  17.131   8.872  1.00 20.00    -0.504 OA
ATOM     51 H51  LIG A   1      21.452  11.804   3.090  1.00 20.00    +0.023 H 
ATOM     52 H52  LIG A   1      19.742  11.418   2.984  1.00 20.00    +0.023 H 
ATOM     53 H53  LIG A   1      20.598  11.165   4.513  1.00 20.00    +0.023 H 
ATOM     54 H54  LIG A   1      20.146  13.863   3.156  1.00 20.00    +0.032 H 
ATOM     55 H55  LIG A   1      18.551  12.355   5.272  1.00 20.00    +0.032 H 
ATOM     56 H56  LIG A   1      17.990  13.025   3.752  1.00 20.00    +0.032 H 
ATOM     57 H57  LIG A   1      18.074  13.527   7.258  1.00 20.00    +0.063 H 
ATOM     58 H58  LIG A   1      18.260  15.632   8.484  1.00 20.00    +0.063 H 
ATOM     59 H59  LIG A   1      18.471  17.782   4.746  1.00 20.00    +0.063 H 
ATOM     60 H60  LIG A   1      18.184  15.691   3.524  1.00 20.00    +0.063 H 
ATOM     61 H61  LIG A   1      21.014  19.163   7.318  1.00 20.00    +0.072 H 
ATOM     62 H62  LIG A   1      23.456  15.921   6.627  1.00 20.00    +0.050 H 
ATOM     63 H63  LIG A   1      22.350  14.715   7.275  1.00 20.00    +0.050 H 
ATOM     64 H64  LIG A   1      22.571  17.593   8.327  1.00 20.00    +0.029 H 
ATOM     65 H65  LIG A   1      23.387  16.206   8.997  1.00 20.00    +0.029 H 
ATOM     66 H66  LIG A   1      20.395  16.010   8.706  1.00 20.00    +0.028 H 
ATOM     67 H67  LIG A   1      21.459  15.135   9.731  1.00 20.00    +0.028 H 
ATOM     68 H68  LIG A   1      21.876  17.071  11.109  1.00 20.00    +0.047 H 
ATOM     69 H69  LIG A   1      19.515  15.742  13.016  1.00 20.00    +0.296 HD
ATOM     70 H70  LIG A   1      22.216  19.202  11.567  1.00 20.00    +0.063 H 
ATOM     71 H71  LIG A   1      21.760  21.561  11.398  1.00 20.00    +0.064 H 
ATOM     72 H72  LIG A   1      18.778  22.881   9.670  1.00 20.00    +0.160 HD
ATOM     73 H73  LIG A   1      20.107  24.720  10.322  1.00 20.00    +0.049 H 
ATOM     74 H74  LIG A   1      21.368  23.666  10.918  1.00 20.00    +0.049 H 
ATOM     75 H75  LIG A   1      19.692  22.781  12.659  1.00 20.00    +0.030 H 
ATOM     76 H76  LIG A   1      18.508  23.923  12.033  1.00 20.00    +0.030 H 
ATOM     77 H77  LIG A   1      21.233  24.647  13.237  1.00 20.00    +0.043 H 
ATOM     78 H78  LIG A   1      20.076  25.817  12.578  1.00 20.00    +0.043 H 
ATOM     79 H79  LIG A   1      19.480  23.942  14.770  1.00 20.00    +0.122 HD
ATOM     80 H80  LIG A   1      20.954  26.294  14.923  1.00 20.00    +0.043 H 
ATOM     81 H81  LIG A   1      20.301  25.300  16.205  1.00 20.00    +0.043 H 
ATOM     82 H82  LIG A   1      19.405  27.515  16.489  1.00 20.00    +0.028 H 
ATOM     83 H83  LIG A   1      18.103  26.427  16.068  1.00 20.00    +0.028 H 
ATOM     84 H84  LIG A   1      17.783  28.504  14.884  1.00 20.00    +0.028 H 
ATOM     85 H85  LIG A   1      18.109  27.236  13.721  1.00 20.00    +0.028 H 
ATOM     86 H86  LIG A   1      19.290  29.238  13.048  1.00 20.00    +0.043 H 
ATOM     87 H87  LIG A   1      20.490  28.043  13.504  1.00 20.00    +0.043 H 
ATOM     88 H88  LIG A   1      20.650  29.148  15.650  1.00 20.00    +0.118 HD
ATOM     89 H89  LIG A   1      19.530  30.240  15.199  1.00 20.00    +0.118 HD
ATOM     90 H90  LIG A   1      18.495  20.765   8.726  1.00 20.00    +0.068 H 
ATOM     91 H91  LIG A   1      20.908  13.631   6.107  1.00 20.00    +0.057 H 
ATOM     92 H92  LIG A   1      23.252  13.899   5.370  1.00 20.00    +0.119 HD
ATOM     93 H93  LIG A   1      22.624  12.420   5.068  1.00 20.00    +0.119 HD
ATOM     94 H94  LIG A   1      19.322  17.962   7.164  1.00 20.00    +0.293 HD
ATOM     95 H95  LIG A   1      19.098  21.271   8.115  1.00 20.00    +0.066 H 
ATOM     96 H96  LIG A   1      19.501  21.932  10.481  1.00 20.00    +0.062 H 
ATOM     97 H97  LIG A   1      20.454  20.293  12.086  1.00 20.00    +0.062 H 
ATOM     98 H98  LIG A   1      21.051  18.004  11.320  1.00 20.00    +0.066 H 
ATOM     99 H99  LIG A   1      21.204  17.268   7.994  1.00 20.00    +0.293 HD
ENDROOT
TORSDOF 0
                                                                                                      
ENDMDL
MODEL 3
REMARK VINA RESULT:   -11.878      3.369     10.349
REMARK INTER + INTRA:         -11.878
REMARK INTER:                 -11.878
REMARK INTRA:                   0.000
REMARK UNBOUND:                 0.000
ROOT
ATOM      1 C1   LIG A   1      22.651  28.441  15.985  1.00 20.00    -0.060 C 
ATOM      2 C2   LIG A   1      21.904  27.182  15.508  1.00 20.00    -0.016 C 
ATOM      3 C3   LIG A   1      20.567  27.676  14.856  1.00 20.00    -0.023 C 
ATOM      4 C4   LIG A   1      19.830  26.611  14.092  1.00 20.00    -0.048 A 
ATOM      5 C5   LIG A   1      19.849  26.624  12.695  1.00 20.00    -0.058 A 
ATOM      6 C6   LIG A   1      19.656  25.438  11.999  1.00 20.00    -0.051 A 
ATOM      7 C7   LIG A   1      19.514  24.243  12.712  1.00 20.00    +0.017 A 
ATOM      8 C8   LIG A   1      19.176  24.298  14.070  1.00 20.00    -0.051 A 
ATOM      9 C9   LIG A   1      19.323  25.496  14.764  1.00 20.00    -0.058 A 
ATOM     10 C10  LIG A   1      19.965  22.970  12.115  1.00 20.00    +0.140 C 
ATOM     11 C11  LIG A   1      20.924  22.215  12.697  1.00 20.00    +0.047 C 
ATOM     12 C12  LIG A   1      21.913  22.626  13.748  1.00 20.00    +0.256 C 
ATOM     13 O13  LIG A   1      22.451  21.746  14.417  1.00 20.00    -0.269 OA
ATOM     14 N14  LIG A   1      22.432  23.905  13.583  1.00 20.00    -0.278 NA
ATOM     15 C15  LIG A   1      23.597  24.014  12.690  1.00 20.00    +0.029 C 
ATOM     16 C16  LIG A   1      23.508  23.296  11.321  1.00 20.00    -0.034 C 
ATOM     17 C17  LIG A   1      22.557  24.008  10.353  1.00 20.00    -0.034 C 
ATOM     18 C18  LIG A   1      22.076  23.179   9.147  1.00 20.00    +0.085 C 
ATOM     19 C19  LIG A   1      21.319  24.105   8.205  1.00 20.00    +0.311 C 
ATOM     20 O20  LIG A   1      20.271  24.690   8.422  1.00 20.00    -0.252 OA
ATOM     21 O21  LIG A   1      21.950  24.274   7.023  1.00 20.00    -0.481 OA
ATOM     22 C22  LIG A   1      21.286  21.891   9.369  1.00 20.00    +0.009 A 
ATOM     23 C23  LIG A   1      21.773  20.734   8.730  1.00 20.00    -0.052 A 
ATOM     24 C24  LIG A   1      21.081  19.514   8.770  1.00 20.00    -0.038 A 
ATOM     25 C25  LIG A   1      19.848  19.400   9.409  1.00 20.00    +0.038 A 
ATOM     26 N26  LIG A   1      19.137  18.210   9.527  1.00 20.00    -0.385 NA
ATOM     27 C27  LIG A   1      19.403  17.044   8.692  1.00 20.00    +0.016 C 
ATOM     28 C28  LIG A   1      18.865  17.232   7.274  1.00 20.00    -0.023 C 
ATOM     29 C29  LIG A   1      19.165  16.001   6.417  1.00 20.00    -0.003 C 
ATOM     30 N30  LIG A   1      18.596  16.173   5.080  1.00 20.00    -0.317 NA
ATOM     31 C31  LIG A   1      18.923  15.061   4.188  1.00 20.00    -0.005 C 
ATOM     32 C32  LIG A   1      17.654  14.347   3.708  1.00 20.00    -0.039 C 
ATOM     33 C33  LIG A   1      16.860  13.626   4.804  1.00 20.00    -0.040 C 
ATOM     34 C34  LIG A   1      17.606  12.490   5.508  1.00 20.00    -0.008 C 
ATOM     35 N35  LIG A   1      17.940  11.387   4.612  1.00 20.00    -0.330 NA
ATOM     36 C36  LIG A   1      19.376  20.531  10.079  1.00 20.00    +0.004 A 
ATOM     37 C37  LIG A   1      20.079  21.750  10.077  1.00 20.00    +0.133 A 
ATOM     38 O38  LIG A   1      19.494  22.757  10.816  1.00 20.00    -0.456 OA
ATOM     39 C39  LIG A   1      22.332  24.725  14.716  1.00 20.00    +0.246 C 
ATOM     40 O40  LIG A   1      21.887  24.306  15.792  1.00 20.00    -0.273 OA
ATOM     41 C41  LIG A   1      22.784  26.234  14.591  1.00 20.00    +0.088 C 
ATOM     42 N42  LIG A   1      24.210  26.291  14.988  1.00 20.00    -0.320 NA
ATOM     43 O43  LIG A   1      19.889  21.942  12.357  1.00 20.00    -0.504 OA
ATOM     44 C44  LIG A   1      20.157  21.479  11.101  1.00 20.00    +0.157 A 
ATOM     45 C45  LIG A   1      19.496  20.345  10.649  1.00 20.00    -0.016 A 
ATOM     46 C46  LIG A   1      19.715  19.906   9.341  1.00 20.00    -0.058 A 
ATOM     47 C47  LIG A   1      20.587  20.603   8.500  1.00 20.00    -0.058 A 
ATOM     48 C48  LIG A   1      21.261  21.733   8.968  1.00 20.00    -0.016 A 
ATOM     49 C49  LIG A   1      21.052  22.153  10.274  1.00 20.00    +0.157 A 
ATOM     50 O50  LIG A   1      21.765  23.217  10.748  1.00 20.00    -0.504 OA
ATOM     51 H51  LIG A   1      23.499  28.185  16.626  1.00 20.00    +0.023 H 
ATOM     52 H52  LIG A   1      21.990  29.081  16.579  1.00 20.00    +0.023 H 
ATOM     53 H53  LIG A   1      23.017  29.030  15.138  1.00 20.00    +0.023 H 
ATOM     54 H54  LIG A   1      21.634  26.627  16.417  1.00 20.00    +0.032 H 
ATOM     55 H55  LIG A   1      20.780  28.517  14.182  1.00 20.00    +0.032 H 
ATOM     56 H56  LIG A   1      19.905  28.078  15.636  1.00 20.00    +0.032 H 
ATOM     57 H57  LIG A   1      20.147  27.515  12.147  1.00 20.00    +0.063 H 
ATOM     58 H58  LIG A   1      19.784  25.433  10.919  1.00 20.00    +0.063 H 
ATOM     59 H59  LIG A   1      18.983  23.389  14.636  1.00 20.00    +0.063 H 
ATOM     60 H60  LIG A   1      19.245  25.487  15.851  1.00 20.00    +0.063 H 
ATOM     61 H61  LIG A   1      21.198  21.246  12.292  1.00 20.00    +0.072 H 
ATOM     62 H62  LIG A   1      24.447  23.590  13.240  1.00 20.00    +0.050 H 
ATOM     63 H63  LIG A   1      23.831  25.066  12.507  1.00 20.00    +0.050 H 
ATOM     64 H64  LIG A   1      23.247  22.242  11.448  1.00 20.00    +0.029 H 
ATOM     65 H65  LIG A   1      24.509  23.298  10.871  1.00 20.00    +0.029 H 
ATOM     66 H66  LIG A   1      21.710  24.412  10.889  1.00 20.00    +0.028 H 
ATOM     67 H67  LIG A   1      23.080  24.898   9.975  1.00 20.00    +0.028 H 
ATOM     68 H68  LIG A   1      23.002  22.905   8.620  1.00 20.00    +0.047 H 
ATOM     69 H69  LIG A   1      21.348  24.863   6.520  1.00 20.00    +0.296 HD
ATOM     70 H70  LIG A   1      22.708  20.764   8.171  1.00 20.00    +0.063 H 
ATOM     71 H71  LIG A   1      21.533  18.664   8.270  1.00 20.00    +0.064 H 
ATOM     72 H72  LIG A   1      18.146  18.358   9.703  1.00 20.00    +0.160 HD
ATOM     73 H73  LIG A   1      18.896  16.188   9.154  1.00 20.00    +0.049 H 
ATOM     74 H74  LIG A   1      20.469  16.792   8.688  1.00 20.00    +0.049 H 
ATOM     75 H75  LIG A   1      19.312  18.120   6.812  1.00 20.00    +0.030 H 
ATOM     76 H76  LIG A   1      17.783  17.409   7.313  1.00 20.00    +0.030 H 
ATOM     77 H77  LIG A   1      20.249  15.860   6.355  1.00 20.00    +0.043 H 
ATOM     78 H78  LIG A   1      18.732  15.114   6.893  1.00 20.00    +0.043 H 
ATOM     79 H79  LIG A   1      18.944  17.044   4.677  1.00 20.00    +0.122 HD
ATOM     80 H80  LIG A   1      19.629  14.350   4.633  1.00 20.00    +0.043 H 
ATOM     81 H81  LIG A   1      19.433  15.473   3.307  1.00 20.00    +0.043 H 
ATOM     82 H82  LIG A   1      17.927  13.638   2.917  1.00 20.00    +0.028 H 
ATOM     83 H83  LIG A   1      16.992  15.082   3.231  1.00 20.00    +0.028 H 
ATOM     84 H84  LIG A   1      15.941  13.226   4.356  1.00 20.00    +0.028 H 
ATOM     85 H85  LIG A   1      16.535  14.352   5.559  1.00 20.00    +0.028 H 
ATOM     86 H86  LIG A   1      16.975  12.095   6.314  1.00 20.00    +0.043 H 
ATOM     87 H87  LIG A   1      18.521  12.854   5.983  1.00 20.00    +0.043 H 
ATOM     88 H88  LIG A   1      18.526  11.716   3.848  1.00 20.00    +0.118 HD
ATOM     89 H89  LIG A   1      17.088  11.030   4.183  1.00 20.00    +0.118 HD
ATOM     90 H90  LIG A   1      18.445  20.475  10.641  1.00 20.00    +0.068 H 
ATOM     91 H91  LIG A   1      22.694  26.562  13.551  1.00 20.00    +0.057 H 
ATOM     92 H92  LIG A   1      24.764  25.597  14.496  1.00 20.00    +0.119 HD
ATOM     93 H93  LIG A   1      24.598  27.203  14.756  1.00 20.00    +0.119 HD
ATOM     94 H94  LIG A   1      19.952  22.913  12.304  1.00 20.00    +0.293 HD
ATOM     95 H95  LIG A   1      18.805  19.818  11.299  1.00 20.00    +0.066 H 
ATOM     96 H96  LIG A   1      19.197  19.023   8.973  1.00 20.00    +0.062 H 
ATOM     97 H97  LIG A   1      20.750  20.261   7.480  1.00 20.00    +0.062 H 
ATOM     98 H98  LIG A   1      21.952  22.267   8.324  1.00 20.00    +0.066 H 
ATOM     99 H99  LIG A   1      22.023  22.978  11.658  1.00 20.00    +0.293 HD
ENDROOT
TORSDOF 0
                                                                                                      
ENDMDL
MODEL 4
REMARK VINA RESULT:   -11.858      5.410     11.277
REMARK INTER + INTRA:         -11.858
REMARK INTER:                 -11.858
REMARK INTRA:                   0.000
REMARK UNBOUND:                 0.000
ROOT
ATOM      1 C1   LIG A   1      25.365  22.800  13.896  1.00 20.00    -0.060 C 
ATOM      2 C2   LIG A   1      24.129  21.986  13.472  1.00 20.00    -0.016 C 
ATOM      3 C3   LIG A   1      22.993  23.023  13.168  1.00 20.00    -0.023 C 
ATOM      4 C4   LIG A   1      21.794  22.431  12.480  1.00 20.00    -0.048 A 
ATOM      5 C5   LIG A   1      21.591  22.670  11.118  1.00 20.00    -0.058 A 
ATOM      6 C6   LIG A   1      20.852  21.763  10.370  1.00 20.00    -0.051 A 
ATOM      7 C7   LIG A   1      20.384  20.595  10.980  1.00 20.00    +0.017 A 
ATOM      8 C8   LIG A   1      20.317  20.539  12.377  1.00 20.00    -0.051 A 
ATOM      9 C9   LIG A   1      21.017  21.473  13.135  1.00 20.00    -0.058 A 
ATOM     10 C10  LIG A   1      20.215  19.364  10.182  1.00 20.00    +0.140 C 
ATOM     11 C11  LIG A   1      20.896  18.232  10.473  1.00 20.00    +0.047 C 
ATOM     12 C12  LIG A   1      22.123  18.085  11.325  1.00 20.00    +0.256 C 
ATOM     13 O13  LIG A   1      22.386  16.973  11.777  1.00 20.00    -0.269 OA
ATOM     14 N14  LIG A   1      23.054  19.106  11.175  1.00 20.00    -0.278 NA
ATOM     15 C15  LIG A   1      24.012  18.942  10.070  1.00 20.00    +0.029 C 
ATOM     16 C16  LIG A   1      23.437  18.542   8.690  1.00 20.00    -0.034 C 
ATOM     17 C17  LIG A   1      22.685  19.695   8.018  1.00 20.00    -0.034 C 
ATOM     18 C18  LIG A   1      21.737  19.305   6.867  1.00 20.00    +0.085 C 
ATOM     19 C19  LIG A   1      21.248  20.582   6.200  1.00 20.00    +0.311 C 
ATOM     20 O20  LIG A   1      20.550  21.455   6.689  1.00 20.00    -0.252 OA
ATOM     21 O21  LIG A   1      21.696  20.712   4.932  1.00 20.00    -0.481 OA
ATOM     22 C22  LIG A   1      20.564  18.362   7.129  1.00 20.00    +0.009 A 
ATOM     23 C23  LIG A   1      20.465  17.232   6.294  1.00 20.00    -0.052 A 
ATOM     24 C24  LIG A   1      19.378  16.348   6.364  1.00 20.00    -0.038 A 
ATOM     25 C25  LIG A   1      18.315  16.573   7.236  1.00 20.00    +0.038 A 
ATOM     26 N26  LIG A   1      17.234  15.709   7.389  1.00 20.00    -0.385 NA
ATOM     27 C27  LIG A   1      16.898  14.682   6.410  1.00 20.00    +0.016 C 
ATOM     28 C28  LIG A   1      16.250  15.283   5.163  1.00 20.00    -0.023 C 
ATOM     29 C29  LIG A   1      15.918  14.187   4.149  1.00 20.00    -0.003 C 
ATOM     30 N30  LIG A   1      15.249  14.770   2.985  1.00 20.00    -0.317 NA
ATOM     31 C31  LIG A   1      14.980  13.781   1.942  1.00 20.00    -0.005 C 
ATOM     32 C32  LIG A   1      13.476  13.653   1.677  1.00 20.00    -0.039 C 
ATOM     33 C33  LIG A   1      12.655  13.087   2.843  1.00 20.00    -0.040 C 
ATOM     34 C34  LIG A   1      13.017  11.660   3.261  1.00 20.00    -0.008 C 
ATOM     35 N35  LIG A   1      12.758  10.677   2.214  1.00 20.00    -0.330 NA
ATOM     36 C36  LIG A   1      18.423  17.669   8.096  1.00 20.00    +0.004 A 
ATOM     37 C37  LIG A   1      19.526  18.541   8.060  1.00 20.00    +0.133 A 
ATOM     38 O38  LIG A   1      19.495  19.552   8.999  1.00 20.00    -0.456 OA
ATOM     39 C39  LIG A   1      23.458  19.705  12.377  1.00 20.00    +0.246 C 
ATOM     40 O40  LIG A   1      23.067  19.298  13.478  1.00 20.00    -0.273 OA
ATOM     41 C41  LIG A   1      24.422  20.955  12.302  1.00 20.00    +0.088 C 
ATOM     42 N42  LIG A   1      25.807  20.436  12.391  1.00 20.00    -0.320 NA
ATOM     43 O43  LIG A   1      19.794  18.404  10.337  1.00 20.00    -0.504 OA
ATOM     44 C44  LIG A   1      19.659  18.094   9.014  1.00 20.00    +0.157 A 
ATOM     45 C45  LIG A   1      18.553  17.360   8.606  1.00 20.00    -0.016 A 
ATOM     46 C46  LIG A   1      18.374  17.096   7.246  1.00 20.00    -0.058 A 
ATOM     47 C47  LIG A   1      19.298  17.570   6.309  1.00 20.00    -0.058 A 
ATOM     48 C48  LIG A   1      20.416  18.293   6.729  1.00 20.00    -0.016 A 
ATOM     49 C49  LIG A   1      20.597  18.534   8.084  1.00 20.00    +0.157 A 
ATOM     50 O50  LIG A   1      21.727  19.182   8.494  1.00 20.00    -0.504 OA
ATOM     51 H51  LIG A   1      26.144  22.157  14.315  1.00 20.00    +0.023 H 
ATOM     52 H52  LIG A   1      25.102  23.524  14.675  1.00 20.00    +0.023 H 
ATOM     53 H53  LIG A   1      25.785  23.354  13.051  1.00 20.00    +0.023 H 
ATOM     54 H54  LIG A   1      23.819  21.419  14.360  1.00 20.00    +0.032 H 
ATOM     55 H55  LIG A   1      23.398  23.833  12.547  1.00 20.00    +0.032 H 
ATOM     56 H56  LIG A   1      22.669  23.497  14.105  1.00 20.00    +0.032 H 
ATOM     57 H57  LIG A   1      22.112  23.476  10.607  1.00 20.00    +0.063 H 
ATOM     58 H58  LIG A   1      20.793  21.894   9.292  1.00 20.00    +0.063 H 
ATOM     59 H59  LIG A   1      19.886  19.676  12.883  1.00 20.00    +0.063 H 
ATOM     60 H60  LIG A   1      21.119  21.311  14.208  1.00 20.00    +0.063 H 
ATOM     61 H61  LIG A   1      20.711  17.312   9.929  1.00 20.00    +0.072 H 
ATOM     62 H62  LIG A   1      24.714  18.159  10.385  1.00 20.00    +0.050 H 
ATOM     63 H63  LIG A   1      24.595  19.858   9.943  1.00 20.00    +0.050 H 
ATOM     64 H64  LIG A   1      22.820  17.643   8.768  1.00 20.00    +0.029 H 
ATOM     65 H65  LIG A   1      24.277  18.265   8.040  1.00 20.00    +0.029 H 
ATOM     66 H66  LIG A   1      22.153  20.277   8.756  1.00 20.00    +0.028 H 
ATOM     67 H67  LIG A   1      23.438  20.392   7.624  1.00 20.00    +0.028 H 
ATOM     68 H68  LIG A   1      22.391  18.812   6.132  1.00 20.00    +0.047 H 
ATOM     69 H69  LIG A   1      21.290  21.551   4.627  1.00 20.00    +0.296 HD
ATOM     70 H70  LIG A   1      21.238  17.022   5.555  1.00 20.00    +0.063 H 
ATOM     71 H71  LIG A   1      19.386  15.489   5.701  1.00 20.00    +0.064 H 
ATOM     72 H72  LIG A   1      16.416  16.167   7.785  1.00 20.00    +0.160 HD
ATOM     73 H73  LIG A   1      16.186  13.997   6.885  1.00 20.00    +0.049 H 
ATOM     74 H74  LIG A   1      17.773  14.073   6.156  1.00 20.00    +0.049 H 
ATOM     75 H75  LIG A   1      16.921  16.018   4.702  1.00 20.00    +0.030 H 
ATOM     76 H76  LIG A   1      15.339  15.822   5.447  1.00 20.00    +0.030 H 
ATOM     77 H77  LIG A   1      16.841  13.683   3.845  1.00 20.00    +0.043 H 
ATOM     78 H78  LIG A   1      15.264  13.445   4.618  1.00 20.00    +0.043 H 
ATOM     79 H79  LIG A   1      15.832  15.515   2.602  1.00 20.00    +0.122 HD
ATOM     80 H80  LIG A   1      15.425  12.801   2.157  1.00 20.00    +0.043 H 
ATOM     81 H81  LIG A   1      15.459  14.126   1.017  1.00 20.00    +0.043 H 
ATOM     82 H82  LIG A   1      13.327  13.036   0.783  1.00 20.00    +0.028 H 
ATOM     83 H83  LIG A   1      13.075  14.643   1.423  1.00 20.00    +0.028 H 
ATOM     84 H84  LIG A   1      11.594  13.119   2.564  1.00 20.00    +0.028 H 
ATOM     85 H85  LIG A   1      12.757  13.744   3.715  1.00 20.00    +0.028 H 
ATOM     86 H86  LIG A   1      12.423  11.385   4.141  1.00 20.00    +0.043 H 
ATOM     87 H87  LIG A   1      14.066  11.591   3.564  1.00 20.00    +0.043 H 
ATOM     88 H88  LIG A   1      13.293  10.900   1.378  1.00 20.00    +0.118 HD
ATOM     89 H89  LIG A   1      11.776  10.722   1.944  1.00 20.00    +0.118 HD
ATOM     90 H90  LIG A   1      17.644  17.852   8.834  1.00 20.00    +0.068 H 
ATOM     91 H91  LIG A   1      24.297  21.463  11.341  1.00 20.00    +0.057 H 
ATOM     92 H92  LIG A   1      25.969  19.684  11.729  1.00 20.00    +0.119 HD
ATOM     93 H93  LIG A   1      26.469  21.177  12.170  1.00 20.00    +0.119 HD
ATOM     94 H94  LIG A   1      20.212  19.284  10.363  1.00 20.00    +0.293 HD
ATOM     95 H95  LIG A   1      17.829  17.011   9.335  1.00 20.00    +0.066 H 
ATOM     96 H96  LIG A   1      17.508  16.530   6.914  1.00 20.00    +0.062 H 
ATOM     97 H97  LIG A   1      19.151  17.368   5.251  1.00 20.00    +0.062 H 
ATOM     98 H98  LIG A   1      21.145  18.647   6.007  1.00 20.00    +0.066 H 
ATOM     99 H99  LIG A   1      22.019  18.719   9.302  1.00 20.00    +0.293 HD
ENDROOT
TORSDOF 0
                                                                                                      
ENDMDL
MODEL 5
REMARK VINA RESULT:   -11.670      3.141     10.732
REMARK INTER + INTRA:         -11.670
REMARK INTER:                 -11.670
REMARK INTRA:                   0.000
REMARK UNBOUND:                 0.000
ROOT
ATOM      1 C1   LIG A   1      19.309  32.838  18.199  1.00 20.00    -0.060 C 
ATOM      2 C2   LIG A   1      19.065  31.385  17.754  1.00 20.00    -0.016 C 
ATOM      3 C3   LIG A   1      17.611  31.333  17.171  1.00 20.00    -0.023 C 
ATOM      4 C4   LIG A   1      17.291  30.059  16.440  1.00 20.00    -0.048 A 
ATOM      5 C5   LIG A   1      17.237  30.059  15.043  1.00 20.00    -0.058 A 
ATOM      6 C6   LIG A   1      17.469  28.876  14.352  1.00 20.00    -0.051 A 
ATOM      7 C7   LIG A   1      17.818  27.726  15.066  1.00 20.00    +0.017 A 
ATOM      8 C8   LIG A   1      17.549  27.670  16.439  1.00 20.00    -0.051 A 
ATOM      9 C9   LIG A   1      17.270  28.845  17.131  1.00 20.00    -0.058 A 
ATOM     10 C10  LIG A   1      18.684  26.705  14.441  1.00 20.00    +0.140 C 
ATOM     11 C11  LIG A   1      19.882  26.372  14.972  1.00 20.00    +0.047 C 
ATOM     12 C12  LIG A   1      20.695  27.138  15.974  1.00 20.00    +0.256 C 
ATOM     13 O13  LIG A   1      21.554  26.533  16.611  1.00 20.00    -0.269 OA
ATOM     14 N14  LIG A   1      20.689  28.516  15.789  1.00 20.00    -0.278 NA
ATOM     15 C15  LIG A   1      21.684  29.039  14.841  1.00 20.00    +0.029 C 
ATOM     16 C16  LIG A   1      21.805  28.321  13.475  1.00 20.00    -0.034 C 
ATOM     17 C17  LIG A   1      20.612  28.612  12.558  1.00 20.00    -0.034 C 
ATOM     18 C18  LIG A   1      20.419  27.646  11.373  1.00 20.00    +0.085 C 
ATOM     19 C19  LIG A   1      19.327  28.208  10.475  1.00 20.00    +0.311 C 
ATOM     20 O20  LIG A   1      18.148  28.362  10.746  1.00 20.00    -0.252 OA
ATOM     21 O21  LIG A   1      19.792  28.584   9.263  1.00 20.00    -0.481 OA
ATOM     22 C22  LIG A   1      20.180  26.159  11.629  1.00 20.00    +0.009 A 
ATOM     23 C23  LIG A   1      21.033  25.260  10.960  1.00 20.00    -0.052 A 
ATOM     24 C24  LIG A   1      20.851  23.870  11.030  1.00 20.00    -0.038 A 
ATOM     25 C25  LIG A   1      19.782  23.312  11.728  1.00 20.00    +0.038 A 
ATOM     26 N26  LIG A   1      19.574  21.944  11.875  1.00 20.00    -0.385 NA
ATOM     27 C27  LIG A   1      20.217  20.950  11.024  1.00 20.00    +0.016 C 
ATOM     28 C28  LIG A   1      19.581  20.903   9.635  1.00 20.00    -0.023 C 
ATOM     29 C29  LIG A   1      20.279  19.862   8.758  1.00 20.00    -0.003 C 
ATOM     30 N30  LIG A   1      19.624  19.790   7.452  1.00 20.00    -0.317 NA
ATOM     31 C31  LIG A   1      20.300  18.868   6.539  1.00 20.00    -0.005 C 
ATOM     32 C32  LIG A   1      19.369  17.725   6.120  1.00 20.00    -0.039 C 
ATOM     33 C33  LIG A   1      18.956  16.774   7.250  1.00 20.00    -0.040 C 
ATOM     34 C34  LIG A   1      20.105  16.010   7.911  1.00 20.00    -0.008 C 
ATOM     35 N35  LIG A   1      20.785  15.099   6.995  1.00 20.00    -0.330 NA
ATOM     36 C36  LIG A   1      18.954  24.194  12.426  1.00 20.00    +0.004 A 
ATOM     37 C37  LIG A   1      19.149  25.587  12.395  1.00 20.00    +0.133 A 
ATOM     38 O38  LIG A   1      18.266  26.313  13.166  1.00 20.00    -0.456 OA
ATOM     39 C39  LIG A   1      20.344  29.255  16.930  1.00 20.00    +0.246 C 
ATOM     40 O40  LIG A   1      20.139  28.715  18.025  1.00 20.00    -0.273 OA
ATOM     41 C41  LIG A   1      20.192  30.821  16.790  1.00 20.00    +0.088 C 
ATOM     42 N42  LIG A   1      21.510  31.413  17.115  1.00 20.00    -0.320 NA
ATOM     43 O43  LIG A   1      19.009  25.727  14.682  1.00 20.00    -0.504 OA
ATOM     44 C44  LIG A   1      19.371  25.380  13.412  1.00 20.00    +0.157 A 
ATOM     45 C45  LIG A   1      19.161  24.075  12.988  1.00 20.00    -0.016 A 
ATOM     46 C46  LIG A   1      19.466  23.730  11.669  1.00 20.00    -0.058 A 
ATOM     47 C47  LIG A   1      19.973  24.691  10.789  1.00 20.00    -0.058 A 
ATOM     48 C48  LIG A   1      20.197  25.998  11.228  1.00 20.00    -0.016 A 
ATOM     49 C49  LIG A   1      19.909  26.327  12.545  1.00 20.00    +0.157 A 
ATOM     50 O50  LIG A   1      20.194  27.588  12.988  1.00 20.00    -0.504 OA
ATOM     51 H51  LIG A   1      20.221  32.927  18.796  1.00 20.00    +0.023 H 
ATOM     52 H52  LIG A   1      18.486  33.193  18.828  1.00 20.00    +0.023 H 
ATOM     53 H53  LIG A   1      19.387  33.510  17.337  1.00 20.00    +0.023 H 
ATOM     54 H54  LIG A   1      19.066  30.782  18.672  1.00 20.00    +0.032 H 
ATOM     55 H55  LIG A   1      17.462  32.183  16.491  1.00 20.00    +0.032 H 
ATOM     56 H56  LIG A   1      16.885  31.470  17.984  1.00 20.00    +0.032 H 
ATOM     57 H57  LIG A   1      17.153  30.988  14.485  1.00 20.00    +0.063 H 
ATOM     58 H58  LIG A   1      17.538  28.905  13.267  1.00 20.00    +0.063 H 
ATOM     59 H59  LIG A   1      17.737  26.762  17.010  1.00 20.00    +0.063 H 
ATOM     60 H60  LIG A   1      17.253  28.824  18.220  1.00 20.00    +0.063 H 
ATOM     61 H61  LIG A   1      20.479  25.570  14.549  1.00 20.00    +0.072 H 
ATOM     62 H62  LIG A   1      22.657  28.972  15.346  1.00 20.00    +0.050 H 
ATOM     63 H63  LIG A   1      21.498  30.100  14.651  1.00 20.00    +0.050 H 
ATOM     64 H64  LIG A   1      21.964  27.248  13.609  1.00 20.00    +0.029 H 
ATOM     65 H65  LIG A   1      22.710  28.691  12.975  1.00 20.00    +0.029 H 
ATOM     66 H66  LIG A   1      19.702  28.677  13.137  1.00 20.00    +0.028 H 
ATOM     67 H67  LIG A   1      20.745  29.627  12.159  1.00 20.00    +0.028 H 
ATOM     68 H68  LIG A   1      21.354  27.730  10.800  1.00 20.00    +0.047 H 
ATOM     69 H69  LIG A   1      18.990  28.898   8.794  1.00 20.00    +0.296 HD
ATOM     70 H70  LIG A   1      21.861  25.629  10.356  1.00 20.00    +0.063 H 
ATOM     71 H71  LIG A   1      21.564  23.243  10.504  1.00 20.00    +0.064 H 
ATOM     72 H72  LIG A   1      18.610  21.714  12.101  1.00 20.00    +0.160 HD
ATOM     73 H73  LIG A   1      20.090  19.974  11.506  1.00 20.00    +0.049 H 
ATOM     74 H74  LIG A   1      21.299  21.115  10.966  1.00 20.00    +0.049 H 
ATOM     75 H75  LIG A   1      19.641  21.887   9.155  1.00 20.00    +0.030 H 
ATOM     76 H76  LIG A   1      18.515  20.663   9.728  1.00 20.00    +0.030 H 
ATOM     77 H77  LIG A   1      21.332  20.135   8.642  1.00 20.00    +0.043 H 
ATOM     78 H78  LIG A   1      20.232  18.885   9.250  1.00 20.00    +0.043 H 
ATOM     79 H79  LIG A   1      19.601  20.722   7.036  1.00 20.00    +0.122 HD
ATOM     80 H80  LIG A   1      21.241  18.479   6.945  1.00 20.00    +0.043 H 
ATOM     81 H81  LIG A   1      20.576  19.428   5.637  1.00 20.00    +0.043 H 
ATOM     82 H82  LIG A   1      19.849  17.158   5.313  1.00 20.00    +0.028 H 
ATOM     83 H83  LIG A   1      18.458  18.151   5.679  1.00 20.00    +0.028 H 
ATOM     84 H84  LIG A   1      18.233  16.053   6.846  1.00 20.00    +0.028 H 
ATOM     85 H85  LIG A   1      18.419  17.337   8.024  1.00 20.00    +0.028 H 
ATOM     86 H86  LIG A   1      19.707  15.419   8.745  1.00 20.00    +0.043 H 
ATOM     87 H87  LIG A   1      20.839  16.696   8.342  1.00 20.00    +0.043 H 
ATOM     88 H88  LIG A   1      21.167  15.613   6.204  1.00 20.00    +0.118 HD
ATOM     89 H89  LIG A   1      20.108  14.443   6.607  1.00 20.00    +0.118 HD
ATOM     90 H90  LIG A   1      18.140  23.802  13.033  1.00 20.00    +0.068 H 
ATOM     91 H91  LIG A   1      19.936  31.077  15.757  1.00 20.00    +0.057 H 
ATOM     92 H92  LIG A   1      22.259  30.970  16.594  1.00 20.00    +0.119 HD
ATOM     93 H93  LIG A   1      21.517  32.401  16.869  1.00 20.00    +0.119 HD
ATOM     94 H94  LIG A   1      18.702  26.650  14.630  1.00 20.00    +0.293 HD
ATOM     95 H95  LIG A   1      18.749  23.337  13.669  1.00 20.00    +0.066 H 
ATOM     96 H96  LIG A   1      19.299  22.713  11.323  1.00 20.00    +0.062 H 
ATOM     97 H97  LIG A   1      20.203  24.420   9.761  1.00 20.00    +0.062 H 
ATOM     98 H98  LIG A   1      20.607  26.742  10.553  1.00 20.00    +0.066 H 
ATOM     99 H99  LIG A   1      20.565  27.476  13.883  1.00 20.00    +0.293 HD
ENDROOT
TORSDOF 0
                                                                                                      
ENDMDL
MODEL 6
REMARK VINA RESULT:   -11.403      1.649      2.217
REMARK INTER + INTRA:         -11.403
REMARK INTER:                 -11.403
REMARK INTRA:                   0.000
REMARK UNBOUND:                 0.000
ROOT
ATOM      1 C1   LIG A   1      24.620  19.993   7.615  1.00 20.00    -0.060 C 
ATOM      2 C2   LIG A   1      23.386  20.613   8.294  1.00 20.00    -0.016 C 
ATOM      3 C3   LIG A   1      22.829  19.533   9.285  1.00 20.00    -0.023 C 
ATOM      4 C4   LIG A   1      21.787  20.054  10.234  1.00 20.00    -0.048 A 
ATOM      5 C5   LIG A   1      22.122  20.280  11.572  1.00 20.00    -0.058 A 
ATOM      6 C6   LIG A   1      21.399  21.210  12.308  1.00 20.00    -0.051 A 
ATOM      7 C7   LIG A   1      20.394  21.949  11.677  1.00 20.00    +0.017 A 
ATOM      8 C8   LIG A   1      19.870  21.485  10.464  1.00 20.00    -0.051 A 
ATOM      9 C9   LIG A   1      20.565  20.519   9.742  1.00 20.00    -0.058 A 
ATOM     10 C10  LIG A   1      20.081  23.315  12.141  1.00 20.00    +0.140 C 
ATOM     11 C11  LIG A   1      20.207  24.387  11.326  1.00 20.00    +0.047 C 
ATOM     12 C12  LIG A   1      20.971  24.485  10.038  1.00 20.00    +0.256 C 
ATOM     13 O13  LIG A   1      20.683  25.389   9.258  1.00 20.00    -0.269 OA
ATOM     14 N14  LIG A   1      22.190  23.815  10.039  1.00 20.00    -0.278 NA
ATOM     15 C15  LIG A   1      23.335  24.569  10.574  1.00 20.00    +0.029 C 
ATOM     16 C16  LIG A   1      23.131  25.301  11.923  1.00 20.00    -0.034 C 
ATOM     17 C17  LIG A   1      23.071  24.331  13.107  1.00 20.00    -0.034 C 
ATOM     18 C18  LIG A   1      22.466  24.890  14.410  1.00 20.00    +0.085 C 
ATOM     19 C19  LIG A   1      22.679  23.862  15.512  1.00 20.00    +0.311 C 
ATOM     20 O20  LIG A   1      22.202  22.742  15.586  1.00 20.00    -0.252 OA
ATOM     21 O21  LIG A   1      23.524  24.297  16.472  1.00 20.00    -0.481 OA
ATOM     22 C22  LIG A   1      21.025  25.395  14.429  1.00 20.00    +0.009 A 
ATOM     23 C23  LIG A   1      20.820  26.698  14.923  1.00 20.00    -0.052 A 
ATOM     24 C24  LIG A   1      19.536  27.238  15.090  1.00 20.00    -0.038 A 
ATOM     25 C25  LIG A   1      18.393  26.489  14.818  1.00 20.00    +0.038 A 
ATOM     26 N26  LIG A   1      17.095  26.981  14.915  1.00 20.00    -0.385 NA
ATOM     27 C27  LIG A   1      16.762  28.191  15.657  1.00 20.00    +0.016 C 
ATOM     28 C28  LIG A   1      16.790  27.951  17.167  1.00 20.00    -0.023 C 
ATOM     29 C29  LIG A   1      16.448  29.236  17.922  1.00 20.00    -0.003 C 
ATOM     30 N30  LIG A   1      16.425  28.977  19.362  1.00 20.00    -0.317 NA
ATOM     31 C31  LIG A   1      16.184  30.190  20.143  1.00 20.00    -0.005 C 
ATOM     32 C32  LIG A   1      14.894  30.071  20.963  1.00 20.00    -0.039 C 
ATOM     33 C33  LIG A   1      13.604  29.988  20.137  1.00 20.00    -0.040 C 
ATOM     34 C34  LIG A   1      13.307  31.212  19.268  1.00 20.00    -0.008 C 
ATOM     35 N35  LIG A   1      13.077  32.423  20.050  1.00 20.00    -0.330 NA
ATOM     36 C36  LIG A   1      18.586  25.209  14.290  1.00 20.00    +0.004 A 
ATOM     37 C37  LIG A   1      19.870  24.671  14.083  1.00 20.00    +0.133 A 
ATOM     38 O38  LIG A   1      19.886  23.412  13.522  1.00 20.00    -0.456 OA
ATOM     39 C39  LIG A   1      22.367  22.929   8.967  1.00 20.00    +0.246 C 
ATOM     40 O40  LIG A   1      21.532  22.818   8.061  1.00 20.00    -0.273 OA
ATOM     41 C41  LIG A   1      23.668  22.033   8.945  1.00 20.00    +0.088 C 
ATOM     42 N42  LIG A   1      24.690  22.774   8.169  1.00 20.00    -0.320 NA
ATOM     43 O43  LIG A   1      19.334  24.039  11.942  1.00 20.00    -0.504 OA
ATOM     44 C44  LIG A   1      19.532  24.765  13.081  1.00 20.00    +0.157 A 
ATOM     45 C45  LIG A   1      18.434  25.335  13.712  1.00 20.00    -0.016 A 
ATOM     46 C46  LIG A   1      18.620  26.023  14.914  1.00 20.00    -0.058 A 
ATOM     47 C47  LIG A   1      19.897  26.131  15.473  1.00 20.00    -0.058 A 
ATOM     48 C48  LIG A   1      20.998  25.569  14.824  1.00 20.00    -0.016 A 
ATOM     49 C49  LIG A   1      20.808  24.904  13.621  1.00 20.00    +0.157 A 
ATOM     50 O50  LIG A   1      21.897  24.416  12.956  1.00 20.00    -0.504 OA
ATOM     51 H51  LIG A   1      24.958  20.597   6.768  1.00 20.00    +0.023 H 
ATOM     52 H52  LIG A   1      24.384  18.999   7.218  1.00 20.00    +0.023 H 
ATOM     53 H53  LIG A   1      25.450  19.885   8.321  1.00 20.00    +0.023 H 
ATOM     54 H54  LIG A   1      22.636  20.742   7.502  1.00 20.00    +0.032 H 
ATOM     55 H55  LIG A   1      23.661  19.108   9.863  1.00 20.00    +0.032 H 
ATOM     56 H56  LIG A   1      22.405  18.696   8.713  1.00 20.00    +0.032 H 
ATOM     57 H57  LIG A   1      23.020  19.846  12.006  1.00 20.00    +0.063 H 
ATOM     58 H58  LIG A   1      21.735  21.464  13.311  1.00 20.00    +0.063 H 
ATOM     59 H59  LIG A   1      19.035  21.993   9.984  1.00 20.00    +0.063 H 
ATOM     60 H60  LIG A   1      20.258  20.304   8.719  1.00 20.00    +0.063 H 
ATOM     61 H61  LIG A   1      19.905  25.378  11.652  1.00 20.00    +0.072 H 
ATOM     62 H62  LIG A   1      23.590  25.321   9.816  1.00 20.00    +0.050 H 
ATOM     63 H63  LIG A   1      24.202  23.911  10.673  1.00 20.00    +0.050 H 
ATOM     64 H64  LIG A   1      22.254  25.954  11.886  1.00 20.00    +0.029 H 
ATOM     65 H65  LIG A   1      23.987  25.969  12.080  1.00 20.00    +0.029 H 
ATOM     66 H66  LIG A   1      22.562  23.421  12.822  1.00 20.00    +0.028 H 
ATOM     67 H67  LIG A   1      24.099  24.004  13.315  1.00 20.00    +0.028 H 
ATOM     68 H68  LIG A   1      23.112  25.743  14.664  1.00 20.00    +0.047 H 
ATOM     69 H69  LIG A   1      23.547  23.556  17.114  1.00 20.00    +0.296 HD
ATOM     70 H70  LIG A   1      21.669  27.323  15.202  1.00 20.00    +0.063 H 
ATOM     71 H71  LIG A   1      19.463  28.257  15.456  1.00 20.00    +0.064 H 
ATOM     72 H72  LIG A   1      16.400  26.244  15.017  1.00 20.00    +0.160 HD
ATOM     73 H73  LIG A   1      15.748  28.487  15.364  1.00 20.00    +0.049 H 
ATOM     74 H74  LIG A   1      17.411  29.026  15.370  1.00 20.00    +0.049 H 
ATOM     75 H75  LIG A   1      17.780  27.595  17.477  1.00 20.00    +0.030 H 
ATOM     76 H76  LIG A   1      16.075  27.160  17.425  1.00 20.00    +0.030 H 
ATOM     77 H77  LIG A   1      17.191  30.004  17.684  1.00 20.00    +0.043 H 
ATOM     78 H78  LIG A   1      15.467  29.597  17.595  1.00 20.00    +0.043 H 
ATOM     79 H79  LIG A   1      17.316  28.565  19.643  1.00 20.00    +0.122 HD
ATOM     80 H80  LIG A   1      16.177  31.099  19.529  1.00 20.00    +0.043 H 
ATOM     81 H81  LIG A   1      17.020  30.312  20.844  1.00 20.00    +0.043 H 
ATOM     82 H82  LIG A   1      14.838  30.919  21.656  1.00 20.00    +0.028 H 
ATOM     83 H83  LIG A   1      14.956  29.176  21.595  1.00 20.00    +0.028 H 
ATOM     84 H84  LIG A   1      12.765  29.826  20.826  1.00 20.00    +0.028 H 
ATOM     85 H85  LIG A   1      13.639  29.101  19.492  1.00 20.00    +0.028 H 
ATOM     86 H86  LIG A   1      12.407  31.016  18.673  1.00 20.00    +0.043 H 
ATOM     87 H87  LIG A   1      14.115  31.396  18.555  1.00 20.00    +0.043 H 
ATOM     88 H88  LIG A   1      13.893  32.637  20.619  1.00 20.00    +0.118 HD
ATOM     89 H89  LIG A   1      12.310  32.264  20.702  1.00 20.00    +0.118 HD
ATOM     90 H90  LIG A   1      17.724  24.608  14.007  1.00 20.00    +0.068 H 
ATOM     91 H91  LIG A   1      24.036  21.888   9.966  1.00 20.00    +0.057 H 
ATOM     92 H92  LIG A   1      24.789  23.730   8.498  1.00 20.00    +0.119 HD
ATOM     93 H93  LIG A   1      25.597  22.326   8.274  1.00 20.00    +0.119 HD
ATOM     94 H94  LIG A   1      19.994  23.322  11.964  1.00 20.00    +0.293 HD
ATOM     95 H95  LIG A   1      17.442  25.232  13.284  1.00 20.00    +0.066 H 
ATOM     96 H96  LIG A   1      17.767  26.466  15.421  1.00 20.00    +0.062 H 
ATOM     97 H97  LIG A   1      20.037  26.661  16.412  1.00 20.00    +0.062 H 
ATOM     98 H98  LIG A   1      21.994  25.666  15.246  1.00 20.00    +0.066 H 
ATOM     99 H99  LIG A   1      21.740  24.611  12.013  1.00 20.00    +0.293 HD
ENDROOT
TORSDOF 0
                                                                                                      
ENDMDL
MODEL 7
REMARK VINA RESULT:   -11.212      3.387      5.193
REMARK INTER + INTRA:         -11.212
REMARK INTER:                 -11.212
REMARK INTRA:                   0.000
REMARK UNBOUND:                 0.000
ROOT
ATOM      1 C1   LIG A   1      19.953  11.975   5.493  1.00 20.00    -0.060 C 
ATOM      2 C2   LIG A   1      19.456  13.253   6.192  1.00 20.00    -0.016 C 
ATOM      3 C3   LIG A   1      18.822  12.801   7.553  1.00 20.00    -0.023 C 
ATOM      4 C4   LIG A   1      18.525  13.934   8.495  1.00 20.00    -0.048 A 
ATOM      5 C5   LIG A   1      19.349  14.144   9.605  1.00 20.00    -0.058 A 
ATOM      6 C6   LIG A   1      19.434  15.415  10.160  1.00 20.00    -0.051 A 
ATOM      7 C7   LIG A   1      18.747  16.472   9.555  1.00 20.00    +0.017 A 
ATOM      8 C8   LIG A   1      17.699  16.184   8.672  1.00 20.00    -0.051 A 
ATOM      9 C9   LIG A   1      17.579  14.900   8.147  1.00 20.00    -0.058 A 
ATOM     10 C10  LIG A   1      19.283  17.845   9.642  1.00 20.00    +0.140 C 
ATOM     11 C11  LIG A   1      19.618  18.546   8.535  1.00 20.00    +0.047 C 
ATOM     12 C12  LIG A   1      19.864  18.025   7.150  1.00 20.00    +0.256 C 
ATOM     13 O13  LIG A   1      19.792  18.814   6.210  1.00 20.00    -0.269 OA
ATOM     14 N14  LIG A   1      20.550  16.817   7.102  1.00 20.00    -0.278 NA
ATOM     15 C15  LIG A   1      22.018  16.912   7.140  1.00 20.00    +0.029 C 
ATOM     16 C16  LIG A   1      22.639  17.832   8.218  1.00 20.00    -0.034 C 
ATOM     17 C17  LIG A   1      22.528  17.235   9.625  1.00 20.00    -0.034 C 
ATOM     18 C18  LIG A   1      22.724  18.219  10.794  1.00 20.00    +0.085 C 
ATOM     19 C19  LIG A   1      22.783  17.417  12.086  1.00 20.00    +0.311 C 
ATOM     20 O20  LIG A   1      21.893  16.752  12.589  1.00 20.00    -0.252 OA
ATOM     21 O21  LIG A   1      23.997  17.471  12.678  1.00 20.00    -0.481 OA
ATOM     22 C22  LIG A   1      21.785  19.414  10.956  1.00 20.00    +0.009 A 
ATOM     23 C23  LIG A   1      22.390  20.680  11.067  1.00 20.00    -0.052 A 
ATOM     24 C24  LIG A   1      21.645  21.841  11.323  1.00 20.00    -0.038 A 
ATOM     25 C25  LIG A   1      20.268  21.789  11.529  1.00 20.00    +0.038 A 
ATOM     26 N26  LIG A   1      19.466  22.907  11.737  1.00 20.00    -0.385 NA
ATOM     27 C27  LIG A   1      20.004  24.203  12.134  1.00 20.00    +0.016 C 
ATOM     28 C28  LIG A   1      20.414  24.215  13.606  1.00 20.00    -0.023 C 
ATOM     29 C29  LIG A   1      20.984  25.580  13.995  1.00 20.00    -0.003 C 
ATOM     30 N30  LIG A   1      21.321  25.594  15.418  1.00 20.00    -0.317 NA
ATOM     31 C31  LIG A   1      21.949  26.848  15.831  1.00 20.00    -0.005 C 
ATOM     32 C32  LIG A   1      21.107  27.563  16.895  1.00 20.00    -0.039 C 
ATOM     33 C33  LIG A   1      19.738  28.059  16.415  1.00 20.00    -0.040 C 
ATOM     34 C34  LIG A   1      19.779  29.106  15.298  1.00 20.00    -0.008 C 
ATOM     35 N35  LIG A   1      20.416  30.353  15.710  1.00 20.00    -0.330 NA
ATOM     36 C36  LIG A   1      19.653  20.543  11.381  1.00 20.00    +0.004 A 
ATOM     37 C37  LIG A   1      20.386  19.378  11.088  1.00 20.00    +0.133 A 
ATOM     38 O38  LIG A   1      19.624  18.237  10.940  1.00 20.00    -0.456 OA
ATOM     39 C39  LIG A   1      19.926  15.824   6.333  1.00 20.00    +0.246 C 
ATOM     40 O40  LIG A   1      18.890  16.042   5.693  1.00 20.00    -0.273 OA
ATOM     41 C41  LIG A   1      20.566  14.379   6.315  1.00 20.00    +0.088 C 
ATOM     42 N42  LIG A   1      21.494  14.333   5.160  1.00 20.00    -0.320 NA
ATOM     43 O43  LIG A   1      18.943  18.816   9.392  1.00 20.00    -0.504 OA
ATOM     44 C44  LIG A   1      19.821  19.486  10.195  1.00 20.00    +0.157 A 
ATOM     45 C45  LIG A   1      19.396  20.642  10.836  1.00 20.00    -0.016 A 
ATOM     46 C46  LIG A   1      20.268  21.294  11.711  1.00 20.00    -0.058 A 
ATOM     47 C47  LIG A   1      21.550  20.785  11.939  1.00 20.00    -0.058 A 
ATOM     48 C48  LIG A   1      21.976  19.631  11.277  1.00 20.00    -0.016 A 
ATOM     49 C49  LIG A   1      21.111  19.000  10.395  1.00 20.00    +0.157 A 
ATOM     50 O50  LIG A   1      21.555  17.912   9.698  1.00 20.00    -0.504 OA
ATOM     51 H51  LIG A   1      20.232  12.169   4.454  1.00 20.00    +0.023 H 
ATOM     52 H52  LIG A   1      19.164  11.215   5.470  1.00 20.00    +0.023 H 
ATOM     53 H53  LIG A   1      20.816  11.547   6.014  1.00 20.00    +0.023 H 
ATOM     54 H54  LIG A   1      18.639  13.642   5.570  1.00 20.00    +0.032 H 
ATOM     55 H55  LIG A   1      19.497  12.090   8.050  1.00 20.00    +0.032 H 
ATOM     56 H56  LIG A   1      17.894  12.246   7.359  1.00 20.00    +0.032 H 
ATOM     57 H57  LIG A   1      20.025  13.369   9.955  1.00 20.00    +0.063 H 
ATOM     58 H58  LIG A   1      20.160  15.597  10.949  1.00 20.00    +0.063 H 
ATOM     59 H59  LIG A   1      17.094  16.981   8.243  1.00 20.00    +0.063 H 
ATOM     60 H60  LIG A   1      16.888  14.733   7.321  1.00 20.00    +0.063 H 
ATOM     61 H61  LIG A   1      19.941  19.580   8.604  1.00 20.00    +0.072 H 
ATOM     62 H62  LIG A   1      22.328  17.287   6.155  1.00 20.00    +0.050 H 
ATOM     63 H63  LIG A   1      22.454  15.915   7.251  1.00 20.00    +0.050 H 
ATOM     64 H64  LIG A   1      22.214  18.838   8.167  1.00 20.00    +0.029 H 
ATOM     65 H65  LIG A   1      23.705  17.953   7.988  1.00 20.00    +0.029 H 
ATOM     66 H66  LIG A   1      21.591  16.709   9.736  1.00 20.00    +0.028 H 
ATOM     67 H67  LIG A   1      23.287  16.445   9.707  1.00 20.00    +0.028 H 
ATOM     68 H68  LIG A   1      23.737  18.622  10.643  1.00 20.00    +0.047 H 
ATOM     69 H69  LIG A   1      23.881  16.939  13.494  1.00 20.00    +0.296 HD
ATOM     70 H70  LIG A   1      23.470  20.788  10.966  1.00 20.00    +0.063 H 
ATOM     71 H71  LIG A   1      22.183  22.783  11.374  1.00 20.00    +0.064 H 
ATOM     72 H72  LIG A   1      18.586  22.682  12.195  1.00 20.00    +0.160 HD
ATOM     73 H73  LIG A   1      19.214  24.947  11.979  1.00 20.00    +0.049 H 
ATOM     74 H74  LIG A   1      20.832  24.507  11.483  1.00 20.00    +0.049 H 
ATOM     75 H75  LIG A   1      21.162  23.436  13.800  1.00 20.00    +0.030 H 
ATOM     76 H76  LIG A   1      19.544  23.979  14.231  1.00 20.00    +0.030 H 
ATOM     77 H77  LIG A   1      21.874  25.785  13.390  1.00 20.00    +0.043 H 
ATOM     78 H78  LIG A   1      20.242  26.356  13.782  1.00 20.00    +0.043 H 
ATOM     79 H79  LIG A   1      21.952  24.817  15.621  1.00 20.00    +0.122 HD
ATOM     80 H80  LIG A   1      22.165  27.516  14.988  1.00 20.00    +0.043 H 
ATOM     81 H81  LIG A   1      22.923  26.608  16.276  1.00 20.00    +0.043 H 
ATOM     82 H82  LIG A   1      21.687  28.402  17.297  1.00 20.00    +0.028 H 
ATOM     83 H83  LIG A   1      20.949  26.881  17.740  1.00 20.00    +0.028 H 
ATOM     84 H84  LIG A   1      19.202  28.478  17.277  1.00 20.00    +0.028 H 
ATOM     85 H85  LIG A   1      19.138  27.207  16.073  1.00 20.00    +0.028 H 
ATOM     86 H86  LIG A   1      18.752  29.335  14.987  1.00 20.00    +0.043 H 
ATOM     87 H87  LIG A   1      20.291  28.719  14.413  1.00 20.00    +0.043 H 
ATOM     88 H88  LIG A   1      21.373  30.180  16.009  1.00 20.00    +0.118 HD
ATOM     89 H89  LIG A   1      19.929  30.729  16.523  1.00 20.00    +0.118 HD
ATOM     90 H90  LIG A   1      18.572  20.461  11.475  1.00 20.00    +0.068 H 
ATOM     91 H91  LIG A   1      21.138  14.216   7.234  1.00 20.00    +0.057 H 
ATOM     92 H92  LIG A   1      22.130  15.124   5.159  1.00 20.00    +0.119 HD
ATOM     93 H93  LIG A   1      22.063  13.491   5.207  1.00 20.00    +0.119 HD
ATOM     94 H94  LIG A   1      19.156  17.871   9.493  1.00 20.00    +0.293 HD
ATOM     95 H95  LIG A   1      18.394  21.022  10.671  1.00 20.00    +0.066 H 
ATOM     96 H96  LIG A   1      19.944  22.196  12.225  1.00 20.00    +0.062 H 
ATOM     97 H97  LIG A   1      22.223  21.293  12.626  1.00 20.00    +0.062 H 
ATOM     98 H98  LIG A   1      22.976  19.243  11.437  1.00 20.00    +0.066 H 
ATOM     99 H99  LIG A   1      21.206  18.016   8.794  1.00 20.00    +0.293 HD
ENDROOT
TORSDOF 0
                                                                                                      
ENDMDL
MODEL 8
REMARK VINA RESULT:   -11.134      6.097     12.666
REMARK INTER + INTRA:         -11.134
REMARK INTER:                 -11.134
REMARK INTRA:                   0.000
REMARK UNBOUND:                 0.000
ROOT
ATOM      1 C1   LIG A   1      24.089  21.963  12.390  1.00 20.00    -0.060 C 
ATOM      2 C2   LIG A   1      22.850  21.486  11.611  1.00 20.00    -0.016 C 
ATOM      3 C3   LIG A   1      22.737  22.402  10.344  1.00 20.00    -0.023 C 
ATOM      4 C4   LIG A   1      21.746  21.914   9.324  1.00 20.00    -0.048 A 
ATOM      5 C5   LIG A   1      22.204  21.317   8.146  1.00 20.00    -0.058 A 
ATOM      6 C6   LIG A   1      21.383  20.422   7.473  1.00 20.00    -0.051 A 
ATOM      7 C7   LIG A   1      20.142  20.086   8.022  1.00 20.00    +0.017 A 
ATOM      8 C8   LIG A   1      19.583  20.921   8.997  1.00 20.00    -0.051 A 
ATOM      9 C9   LIG A   1      20.388  21.853   9.645  1.00 20.00    -0.058 A 
ATOM     10 C10  LIG A   1      19.562  18.751   7.773  1.00 20.00    +0.140 C 
ATOM     11 C11  LIG A   1      19.291  17.896   8.786  1.00 20.00    +0.047 C 
ATOM     12 C12  LIG A   1      19.809  17.936  10.193  1.00 20.00    +0.256 C 
ATOM     13 O13  LIG A   1      19.189  17.322  11.059  1.00 20.00    -0.269 OA
ATOM     14 N14  LIG A   1      21.144  18.306  10.306  1.00 20.00    -0.278 NA
ATOM     15 C15  LIG A   1      22.124  17.218  10.160  1.00 20.00    +0.029 C 
ATOM     16 C16  LIG A   1      21.939  16.255   8.962  1.00 20.00    -0.034 C 
ATOM     17 C17  LIG A   1      22.302  16.914   7.627  1.00 20.00    -0.034 C 
ATOM     18 C18  LIG A   1      21.771  16.214   6.361  1.00 20.00    +0.085 C 
ATOM     19 C19  LIG A   1      22.397  16.886   5.148  1.00 20.00    +0.311 C 
ATOM     20 O20  LIG A   1      22.237  18.035   4.770  1.00 20.00    -0.252 OA
ATOM     21 O21  LIG A   1      23.233  16.067   4.473  1.00 20.00    -0.481 OA
ATOM     22 C22  LIG A   1      20.267  16.044   6.154  1.00 20.00    +0.009 A 
ATOM     23 C23  LIG A   1      19.811  14.738   5.886  1.00 20.00    -0.052 A 
ATOM     24 C24  LIG A   1      18.470  14.467   5.575  1.00 20.00    -0.038 A 
ATOM     25 C25  LIG A   1      17.529  15.489   5.469  1.00 20.00    +0.038 A 
ATOM     26 N26  LIG A   1      16.177  15.282   5.213  1.00 20.00    -0.385 NA
ATOM     27 C27  LIG A   1      15.658  14.035   4.663  1.00 20.00    +0.016 C 
ATOM     28 C28  LIG A   1      15.966  13.907   3.172  1.00 20.00    -0.023 C 
ATOM     29 C29  LIG A   1      15.421  12.588   2.622  1.00 20.00    -0.003 C 
ATOM     30 N30  LIG A   1      15.674  12.504   1.183  1.00 20.00    -0.317 NA
ATOM     31 C31  LIG A   1      15.249  11.226   0.615  1.00 20.00    -0.005 C 
ATOM     32 C32  LIG A   1      14.165  11.429  -0.450  1.00 20.00    -0.039 C 
ATOM     33 C33  LIG A   1      12.833  11.980   0.073  1.00 20.00    -0.040 C 
ATOM     34 C34  LIG A   1      12.110  11.085   1.083  1.00 20.00    -0.008 C 
ATOM     35 N35  LIG A   1      11.696   9.806   0.516  1.00 20.00    -0.330 NA
ATOM     36 C36  LIG A   1      17.963  16.782   5.772  1.00 20.00    +0.004 A 
ATOM     37 C37  LIG A   1      19.297  17.061   6.121  1.00 20.00    +0.133 A 
ATOM     38 O38  LIG A   1      19.552  18.382   6.425  1.00 20.00    -0.456 OA
ATOM     39 C39  LIG A   1      21.384  19.356  11.203  1.00 20.00    +0.246 C 
ATOM     40 O40  LIG A   1      20.481  19.853  11.889  1.00 20.00    -0.273 OA
ATOM     41 C41  LIG A   1      22.853  19.928  11.311  1.00 20.00    +0.088 C 
ATOM     42 N42  LIG A   1      23.527  19.182  12.399  1.00 20.00    -0.320 NA
ATOM     43 O43  LIG A   1      18.634  18.274   7.955  1.00 20.00    -0.504 OA
ATOM     44 C44  LIG A   1      18.804  17.278   7.036  1.00 20.00    +0.157 A 
ATOM     45 C45  LIG A   1      17.701  16.830   6.322  1.00 20.00    -0.016 A 
ATOM     46 C46  LIG A   1      17.879  15.859   5.333  1.00 20.00    -0.058 A 
ATOM     47 C47  LIG A   1      19.153  15.349   5.067  1.00 20.00    -0.058 A 
ATOM     48 C48  LIG A   1      20.255  15.793   5.802  1.00 20.00    -0.016 A 
ATOM     49 C49  LIG A   1      20.067  16.744   6.796  1.00 20.00    +0.157 A 
ATOM     50 O50  LIG A   1      21.135  17.123   7.557  1.00 20.00    -0.504 OA
ATOM     51 H51  LIG A   1      24.134  21.513  13.386  1.00 20.00    +0.023 H 
ATOM     52 H52  LIG A   1      24.059  23.048  12.537  1.00 20.00    +0.023 H 
ATOM     53 H53  LIG A   1      25.012  21.721  11.854  1.00 20.00    +0.023 H 
ATOM     54 H54  LIG A   1      21.985  21.711  12.250  1.00 20.00    +0.032 H 
ATOM     55 H55  LIG A   1      23.725  22.489   9.871  1.00 20.00    +0.032 H 
ATOM     56 H56  LIG A   1      22.462  23.420  10.651  1.00 20.00    +0.032 H 
ATOM     57 H57  LIG A   1      23.236  21.432   7.824  1.00 20.00    +0.063 H 
ATOM     58 H58  LIG A   1      21.785  19.875   6.623  1.00 20.00    +0.063 H 
ATOM     59 H59  LIG A   1      18.585  20.733   9.391  1.00 20.00    +0.063 H 
ATOM     60 H60  LIG A   1      20.000  22.361  10.528  1.00 20.00    +0.063 H 
ATOM     61 H61  LIG A   1      18.797  16.947   8.600  1.00 20.00    +0.072 H 
ATOM     62 H62  LIG A   1      22.066  16.625  11.082  1.00 20.00    +0.050 H 
ATOM     63 H63  LIG A   1      23.135  17.630  10.111  1.00 20.00    +0.050 H 
ATOM     64 H64  LIG A   1      20.929  15.836   8.948  1.00 20.00    +0.029 H 
ATOM     65 H65  LIG A   1      22.610  15.399   9.107  1.00 20.00    +0.029 H 
ATOM     66 H66  LIG A   1      22.005  17.953   7.628  1.00 20.00    +0.028 H 
ATOM     67 H67  LIG A   1      23.398  16.952   7.567  1.00 20.00    +0.028 H 
ATOM     68 H68  LIG A   1      22.208  15.205   6.406  1.00 20.00    +0.047 H 
ATOM     69 H69  LIG A   1      23.538  16.616   3.719  1.00 20.00    +0.296 HD
ATOM     70 H70  LIG A   1      20.504  13.897   5.903  1.00 20.00    +0.063 H 
ATOM     71 H71  LIG A   1      18.194  13.432   5.402  1.00 20.00    +0.064 H 
ATOM     72 H72  LIG A   1      15.715  16.108   4.839  1.00 20.00    +0.160 HD
ATOM     73 H73  LIG A   1      14.570  14.044   4.802  1.00 20.00    +0.049 H 
ATOM     74 H74  LIG A   1      16.023  13.169   5.226  1.00 20.00    +0.049 H 
ATOM     75 H75  LIG A   1      17.048  13.957   3.001  1.00 20.00    +0.030 H 
ATOM     76 H76  LIG A   1      15.522  14.752   2.632  1.00 20.00    +0.030 H 
ATOM     77 H77  LIG A   1      15.901  11.753   3.143  1.00 20.00    +0.043 H 
ATOM     78 H78  LIG A   1      14.344  12.534   2.811  1.00 20.00    +0.043 H 
ATOM     79 H79  LIG A   1      16.672  12.636   1.011  1.00 20.00    +0.122 HD
ATOM     80 H80  LIG A   1      14.921  10.508   1.376  1.00 20.00    +0.043 H 
ATOM     81 H81  LIG A   1      16.119  10.766   0.129  1.00 20.00    +0.043 H 
ATOM     82 H82  LIG A   1      13.997  10.476  -0.967  1.00 20.00    +0.028 H 
ATOM     83 H83  LIG A   1      14.545  12.117  -1.217  1.00 20.00    +0.028 H 
ATOM     84 H84  LIG A   1      12.173  12.156  -0.785  1.00 20.00    +0.028 H 
ATOM     85 H85  LIG A   1      12.999  12.962   0.532  1.00 20.00    +0.028 H 
ATOM     86 H86  LIG A   1      11.213  11.605   1.441  1.00 20.00    +0.043 H 
ATOM     87 H87  LIG A   1      12.732  10.901   1.963  1.00 20.00    +0.043 H 
ATOM     88 H88  LIG A   1      12.504   9.293   0.170  1.00 20.00    +0.118 HD
ATOM     89 H89  LIG A   1      11.099   9.972  -0.293  1.00 20.00    +0.118 HD
ATOM     90 H90  LIG A   1      17.251  17.606   5.759  1.00 20.00    +0.068 H 
ATOM     91 H91  LIG A   1      23.390  19.748  10.375  1.00 20.00    +0.057 H 
ATOM     92 H92  LIG A   1      23.426  18.179  12.284  1.00 20.00    +0.119 HD
ATOM     93 H93  LIG A   1      24.524  19.386  12.392  1.00 20.00    +0.119 HD
ATOM     94 H94  LIG A   1      19.451  18.805   7.928  1.00 20.00    +0.293 HD
ATOM     95 H95  LIG A   1      16.717  17.243   6.518  1.00 20.00    +0.066 H 
ATOM     96 H96  LIG A   1      17.024  15.507   4.761  1.00 20.00    +0.062 H 
ATOM     97 H97  LIG A   1      19.288  14.598   4.292  1.00 20.00    +0.062 H 
ATOM     98 H98  LIG A   1      21.243  15.387   5.611  1.00 20.00    +0.066 H 
ATOM     99 H99  LIG A   1      20.799  17.191   8.470  1.00 20.00    +0.293 HD
ENDROOT
TORSDOF 0
                                                                                                      
ENDMDL
MODEL 9
REMARK VINA RESULT:   -10.922      9.099     14.748
REMARK INTER + INTRA:         -10.922
REMARK INTER:                 -10.922
REMARK INTRA:                   0.000
REMARK UNBOUND:                 0.000
ROOT
ATOM      1 C1   LIG A   1      22.790  15.457  11.952  1.00 20.00    -0.060 C 
ATOM      2 C2   LIG A   1      21.514  15.722  11.134  1.00 20.00    -0.016 C 
ATOM      3 C3   LIG A   1      21.872  16.841  10.095  1.00 20.00    -0.023 C 
ATOM      4 C4   LIG A   1      20.829  17.042   9.031  1.00 20.00    -0.048 A 
ATOM      5 C5   LIG A   1      21.060  16.566   7.738  1.00 20.00    -0.058 A 
ATOM      6 C6   LIG A   1      19.980  16.264   6.919  1.00 20.00    -0.051 A 
ATOM      7 C7   LIG A   1      18.683  16.379   7.429  1.00 20.00    +0.017 A 
ATOM      8 C8   LIG A   1      18.471  17.150   8.578  1.00 20.00    -0.051 A 
ATOM      9 C9   LIG A   1      19.555  17.497   9.380  1.00 20.00    -0.058 A 
ATOM     10 C10  LIG A   1      17.610  15.499   6.923  1.00 20.00    +0.140 C 
ATOM     11 C11  LIG A   1      16.946  14.651   7.740  1.00 20.00    +0.047 C 
ATOM     12 C12  LIG A   1      17.350  14.174   9.104  1.00 20.00    +0.256 C 
ATOM     13 O13  LIG A   1      16.479  13.716   9.841  1.00 20.00    -0.269 OA
ATOM     14 N14  LIG A   1      18.707  13.911   9.245  1.00 20.00    -0.278 NA
ATOM     15 C15  LIG A   1      19.145  12.567   8.836  1.00 20.00    +0.029 C 
ATOM     16 C16  LIG A   1      18.642  12.045   7.468  1.00 20.00    -0.034 C 
ATOM     17 C17  LIG A   1      19.326  12.750   6.291  1.00 20.00    -0.034 C 
ATOM     18 C18  LIG A   1      18.624  12.619   4.925  1.00 20.00    +0.085 C 
ATOM     19 C19  LIG A   1      19.544  13.199   3.861  1.00 20.00    +0.311 C 
ATOM     20 O20  LIG A   1      19.906  14.358   3.742  1.00 20.00    -0.252 OA
ATOM     21 O21  LIG A   1      19.996  12.262   2.998  1.00 20.00    -0.481 OA
ATOM     22 C22  LIG A   1      17.203  13.149   4.741  1.00 20.00    +0.009 A 
ATOM     23 C23  LIG A   1      16.257  12.247   4.218  1.00 20.00    -0.052 A 
ATOM     24 C24  LIG A   1      14.947  12.640   3.906  1.00 20.00    -0.038 A 
ATOM     25 C25  LIG A   1      14.531  13.962   4.053  1.00 20.00    +0.038 A 
ATOM     26 N26  LIG A   1      13.235  14.405   3.808  1.00 20.00    -0.385 NA
ATOM     27 C27  LIG A   1      12.273  13.640   3.024  1.00 20.00    +0.016 C 
ATOM     28 C28  LIG A   1      12.584  13.705   1.529  1.00 20.00    -0.023 C 
ATOM     29 C29  LIG A   1      11.568  12.887   0.731  1.00 20.00    -0.003 C 
ATOM     30 N30  LIG A   1      11.846  13.004  -0.700  1.00 20.00    -0.317 NA
ATOM     31 C31  LIG A   1      10.956  12.175  -1.512  1.00 20.00    -0.005 C 
ATOM     32 C32  LIG A   1      10.123  13.034  -2.470  1.00 20.00    -0.039 C 
ATOM     33 C33  LIG A   1       9.119  13.975  -1.793  1.00 20.00    -0.040 C 
ATOM     34 C34  LIG A   1       8.028  13.283  -0.972  1.00 20.00    -0.008 C 
ATOM     35 N35  LIG A   1       7.148  12.447  -1.783  1.00 20.00    -0.330 NA
ATOM     36 C36  LIG A   1      15.451  14.856   4.608  1.00 20.00    +0.004 A 
ATOM     37 C37  LIG A   1      16.755  14.464   4.960  1.00 20.00    +0.133 A 
ATOM     38 O38  LIG A   1      17.524  15.458   5.528  1.00 20.00    -0.456 OA
ATOM     39 C39  LIG A   1      19.314  14.550  10.336  1.00 20.00    +0.246 C 
ATOM     40 O40  LIG A   1      18.666  15.228  11.143  1.00 20.00    -0.273 OA
ATOM     41 C41  LIG A   1      20.878  14.410  10.510  1.00 20.00    +0.088 C 
ATOM     42 N42  LIG A   1      21.111  13.241  11.390  1.00 20.00    -0.320 NA
ATOM     43 O43  LIG A   1      16.559  15.433   7.033  1.00 20.00    -0.504 OA
ATOM     44 C44  LIG A   1      16.347  14.674   5.918  1.00 20.00    +0.157 A 
ATOM     45 C45  LIG A   1      15.202  14.895   5.164  1.00 20.00    -0.016 A 
ATOM     46 C46  LIG A   1      15.012  14.168   3.986  1.00 20.00    -0.058 A 
ATOM     47 C47  LIG A   1      15.966  13.234   3.573  1.00 20.00    -0.058 A 
ATOM     48 C48  LIG A   1      17.107  13.006   4.345  1.00 20.00    -0.016 A 
ATOM     49 C49  LIG A   1      17.280  13.718   5.524  1.00 20.00    +0.157 A 
ATOM     50 O50  LIG A   1      18.362  13.443   6.310  1.00 20.00    -0.504 OA
ATOM     51 H51  LIG A   1      22.584  14.835  12.827  1.00 20.00    +0.023 H 
ATOM     52 H52  LIG A   1      23.212  16.396  12.326  1.00 20.00    +0.023 H 
ATOM     53 H53  LIG A   1      23.556  14.964  11.344  1.00 20.00    +0.023 H 
ATOM     54 H54  LIG A   1      20.788  16.155  11.836  1.00 20.00    +0.032 H 
ATOM     55 H55  LIG A   1      22.830  16.598   9.616  1.00 20.00    +0.032 H 
ATOM     56 H56  LIG A   1      22.033  17.792  10.622  1.00 20.00    +0.032 H 
ATOM     57 H57  LIG A   1      22.062  16.297   7.410  1.00 20.00    +0.063 H 
ATOM     58 H58  LIG A   1      20.163  15.787   5.959  1.00 20.00    +0.063 H 
ATOM     59 H59  LIG A   1      17.466  17.325   8.959  1.00 20.00    +0.063 H 
ATOM     60 H60  LIG A   1      19.366  17.926  10.364  1.00 20.00    +0.063 H 
ATOM     61 H61  LIG A   1      16.110  14.061   7.375  1.00 20.00    +0.072 H 
ATOM     62 H62  LIG A   1      18.789  11.878   9.613  1.00 20.00    +0.050 H 
ATOM     63 H63  LIG A   1      20.237  12.513   8.840  1.00 20.00    +0.050 H 
ATOM     64 H64  LIG A   1      17.552  12.106   7.402  1.00 20.00    +0.029 H 
ATOM     65 H65  LIG A   1      18.881  10.976   7.404  1.00 20.00    +0.029 H 
ATOM     66 H66  LIG A   1      19.495  13.791   6.524  1.00 20.00    +0.028 H 
ATOM     67 H67  LIG A   1      20.338  12.331   6.202  1.00 20.00    +0.028 H 
ATOM     68 H68  LIG A   1      18.592  11.536   4.739  1.00 20.00    +0.047 H 
ATOM     69 H69  LIG A   1      20.547  12.774   2.368  1.00 20.00    +0.296 HD
ATOM     70 H70  LIG A   1      16.528  11.208   4.032  1.00 20.00    +0.063 H 
ATOM     71 H71  LIG A   1      14.271  11.880   3.526  1.00 20.00    +0.064 H 
ATOM     72 H72  LIG A   1      13.187  15.406   3.634  1.00 20.00    +0.160 HD
ATOM     73 H73  LIG A   1      11.284  14.079   3.200  1.00 20.00    +0.049 H 
ATOM     74 H74  LIG A   1      12.206  12.604   3.377  1.00 20.00    +0.049 H 
ATOM     75 H75  LIG A   1      13.595  13.327   1.334  1.00 20.00    +0.030 H 
ATOM     76 H76  LIG A   1      12.570  14.751   1.198  1.00 20.00    +0.030 H 
ATOM     77 H77  LIG A   1      11.621  11.840   1.046  1.00 20.00    +0.043 H 
ATOM     78 H78  LIG A   1      10.559  13.256   0.944  1.00 20.00    +0.043 H 
ATOM     79 H79  LIG A   1      12.815  12.733  -0.877  1.00 20.00    +0.122 HD
ATOM     80 H80  LIG A   1      10.312  11.523  -0.909  1.00 20.00    +0.043 H 
ATOM     81 H81  LIG A   1      11.578  11.501  -2.115  1.00 20.00    +0.043 H 
ATOM     82 H82  LIG A   1       9.600  12.372  -3.170  1.00 20.00    +0.028 H 
ATOM     83 H83  LIG A   1      10.801  13.639  -3.085  1.00 20.00    +0.028 H 
ATOM     84 H84  LIG A   1       8.645  14.588  -2.571  1.00 20.00    +0.028 H 
ATOM     85 H85  LIG A   1       9.655  14.676  -1.143  1.00 20.00    +0.028 H 
ATOM     86 H86  LIG A   1       7.414  14.047  -0.479  1.00 20.00    +0.043 H 
ATOM     87 H87  LIG A   1       8.462  12.674  -0.173  1.00 20.00    +0.043 H 
ATOM     88 H88  LIG A   1       7.684  11.725  -2.258  1.00 20.00    +0.118 HD
ATOM     89 H89  LIG A   1       6.724  13.015  -2.515  1.00 20.00    +0.118 HD
ATOM     90 H90  LIG A   1      15.154  15.886   4.796  1.00 20.00    +0.068 H 
ATOM     91 H91  LIG A   1      21.343  14.218   9.538  1.00 20.00    +0.057 H 
ATOM     92 H92  LIG A   1      20.604  12.423  11.068  1.00 20.00    +0.119 HD
ATOM     93 H93  LIG A   1      22.100  12.999  11.390  1.00 20.00    +0.119 HD
ATOM     94 H94  LIG A   1      17.524  15.562   7.089  1.00 20.00    +0.293 HD
ATOM     95 H95  LIG A   1      14.473  15.635   5.479  1.00 20.00    +0.066 H 
ATOM     96 H96  LIG A   1      14.123  14.338   3.383  1.00 20.00    +0.062 H 
ATOM     97 H97  LIG A   1      15.818  12.675   2.651  1.00 20.00    +0.062 H 
ATOM     98 H98  LIG A   1      17.842  12.269   4.037  1.00 20.00    +0.066 H 
ATOM     99 H99  LIG A   1      18.033  13.456   7.227  1.00 20.00    +0.293 HD
ENDROOT
TORSDOF 0
                                                                                                      
ENDMDL
