ROOT
ATOM      1 C1   LIG A   1      -1.808   0.349  -0.057  1.00 20.00    +0.000 C 
ATOM      2 C2   LIG A   1      -0.806  -0.762   0.158  1.00 20.00    +0.000 C 
ATOM      3 Se3  LIG A   1       0.797  -0.090   1.019  1.00 20.00    +0.000 Se
ATOM      4 C4   LIG A   1       2.215   0.275  -0.226  1.00 20.00    +0.000 C 
ATOM      5 N5   LIG A   1      -8.949   1.044  -2.385  1.00 20.00    -0.289 NA
ATOM      6 C6   LIG A   1      -9.734   0.368  -1.616  1.00 20.00    +0.092 C 
ATOM      7 N7   LIG A   1     -10.347   1.066  -0.539  1.00 20.00    -0.388 NA
ATOM      8 C8   LIG A   1      -9.937  -1.048  -1.898  1.00 20.00    +0.022 C 
ATOM      9 C9   LIG A   1      -9.255  -2.047  -1.034  1.00 20.00    +0.022 C 
ATOM     10 N10  LIG A   1      -7.820  -1.982  -1.049  1.00 20.00    -0.384 NA
ATOM     11 C11  LIG A   1      -6.994  -1.112  -0.323  1.00 20.00    +0.038 A 
ATOM     12 C12  LIG A   1      -7.397  -0.207   0.619  1.00 20.00    -0.038 A 
ATOM     13 C13  LIG A   1      -6.527   0.650   1.286  1.00 20.00    -0.045 A 
ATOM     14 C14  LIG A   1      -5.189   0.614   1.012  1.00 20.00    +0.065 A 
ATOM     15 C15  LIG A   1      -4.277   1.435   1.640  1.00 20.00    +0.193 C 
ATOM     16 O16  LIG A   1      -4.672   2.266   2.506  1.00 20.00    -0.289 OA
ATOM     17 C17  LIG A   1      -2.941   1.331   1.303  1.00 20.00    +0.030 C 
ATOM     18 C18  LIG A   1      -2.553   0.412   0.351  1.00 20.00    +0.138 C 
ATOM     19 C19  LIG A   1      -1.172   0.226  -0.072  1.00 20.00    +0.017 A 
ATOM     20 C20  LIG A   1      -0.901  -0.711  -1.045  1.00 20.00    -0.049 A 
ATOM     21 C21  LIG A   1       0.384  -0.940  -1.485  1.00 20.00    -0.038 A 
ATOM     22 C22  LIG A   1       1.481  -0.238  -0.971  1.00 20.00    +0.034 A 
ATOM     23 N23  LIG A   1       2.789  -0.489  -1.460  1.00 20.00    -0.385 NA
ATOM     24 C24  LIG A   1       3.988   0.135  -0.955  1.00 20.00    +0.016 C 
ATOM     25 C25  LIG A   1       4.331  -0.323   0.442  1.00 20.00    -0.023 C 
ATOM     26 C26  LIG A   1       5.612   0.416   0.855  1.00 20.00    -0.003 C 
ATOM     27 N27  LIG A   1       6.630   0.054  -0.085  1.00 20.00    -0.317 NA
ATOM     28 C28  LIG A   1       7.920   0.649   0.157  1.00 20.00    -0.005 C 
ATOM     29 C29  LIG A   1       8.521   0.086   1.411  1.00 20.00    -0.039 C 
ATOM     30 C30  LIG A   1       9.866   0.693   1.678  1.00 20.00    -0.040 C 
ATOM     31 C31  LIG A   1      10.842   0.438   0.563  1.00 20.00    -0.008 C 
ATOM     32 N32  LIG A   1      12.104   1.076   0.945  1.00 20.00    -0.330 NA
ATOM     33 C33  LIG A   1       1.188   0.693  -0.001  1.00 20.00    -0.038 A 
ATOM     34 C34  LIG A   1      -0.109   0.929   0.449  1.00 20.00    -0.049 A 
ATOM     35 O35  LIG A   1      -3.460  -0.346  -0.216  1.00 20.00    -0.456 OA
ATOM     36 C36  LIG A   1      -4.748  -0.284   0.072  1.00 20.00    +0.140 A 
ATOM     37 C37  LIG A   1      -5.613  -1.130  -0.586  1.00 20.00    +0.005 A 
ATOM     38 H38  LIG A   1      -2.798   0.137   0.393  1.00 20.00    +0.000 H 
ATOM     39 H39  LIG A   1      -1.950   0.487  -1.137  1.00 20.00    +0.000 H 
ATOM     40 H40  LIG A   1      -1.435   1.258   0.454  1.00 20.00    +0.000 H 
ATOM     41 H41  LIG A   1      -1.298  -1.496   0.849  1.00 20.00    +0.000 H 
ATOM     42 H42  LIG A   1      -0.514  -1.258  -0.798  1.00 20.00    +0.000 H 
ATOM     43 H43  LIG A   1       2.364   1.381  -0.271  1.00 20.00    +0.000 H 
ATOM     44 H44  LIG A   1       2.046  -0.122  -1.237  1.00 20.00    +0.000 H 
ATOM     45 H45  LIG A   1       3.188  -0.160   0.119  1.00 20.00    +0.000 H 
ATOM     46 H46  LIG A   1      -8.776   2.055  -2.219  1.00 20.00    +0.189 HD
ATOM     47 H47  LIG A   1     -10.222   2.075  -0.377  1.00 20.00    +0.157 HD
ATOM     48 H48  LIG A   1     -10.955   0.498   0.112  1.00 20.00    +0.157 HD
ATOM     49 H49  LIG A   1      -9.660  -1.270  -2.979  1.00 20.00    +0.037 H 
ATOM     50 H50  LIG A   1     -11.062  -1.206  -1.903  1.00 20.00    +0.037 H 
ATOM     51 H51  LIG A   1      -9.617  -1.995   0.031  1.00 20.00    +0.049 H 
ATOM     52 H52  LIG A   1      -9.622  -3.062  -1.368  1.00 20.00    +0.049 H 
ATOM     53 H53  LIG A   1      -7.340  -2.677  -1.686  1.00 20.00    +0.160 HD
ATOM     54 H54  LIG A   1      -8.420  -0.152   0.886  1.00 20.00    +0.064 H 
ATOM     55 H55  LIG A   1      -6.890   1.365   2.036  1.00 20.00    +0.063 H 
ATOM     56 H56  LIG A   1      -2.206   1.961   1.778  1.00 20.00    +0.070 H 
ATOM     57 H57  LIG A   1      -1.683  -1.308  -1.506  1.00 20.00    +0.063 H 
ATOM     58 H58  LIG A   1       0.566  -1.690  -2.258  1.00 20.00    +0.064 H 
ATOM     59 H59  LIG A   1       2.861  -1.191  -2.256  1.00 20.00    +0.160 HD
ATOM     60 H60  LIG A   1       4.833  -0.188  -1.597  1.00 20.00    +0.049 H 
ATOM     61 H61  LIG A   1       3.910   1.242  -1.014  1.00 20.00    +0.049 H 
ATOM     62 H62  LIG A   1       4.624  -1.414   0.418  1.00 20.00    +0.030 H 
ATOM     63 H63  LIG A   1       3.539  -0.257   1.178  1.00 20.00    +0.030 H 
ATOM     64 H64  LIG A   1       5.869   0.178   1.902  1.00 20.00    +0.043 H 
ATOM     65 H65  LIG A   1       5.410   1.522   0.743  1.00 20.00    +0.043 H 
ATOM     66 H66  LIG A   1       6.686  -0.968  -0.229  1.00 20.00    +0.122 HD
ATOM     67 H67  LIG A   1       8.567   0.335  -0.706  1.00 20.00    +0.043 H 
ATOM     68 H68  LIG A   1       7.848   1.738   0.245  1.00 20.00    +0.043 H 
ATOM     69 H69  LIG A   1       7.846   0.380   2.267  1.00 20.00    +0.028 H 
ATOM     70 H70  LIG A   1       8.528  -1.025   1.417  1.00 20.00    +0.028 H 
ATOM     71 H71  LIG A   1      10.277   0.316   2.635  1.00 20.00    +0.028 H 
ATOM     72 H72  LIG A   1       9.701   1.790   1.811  1.00 20.00    +0.028 H 
ATOM     73 H73  LIG A   1      10.509   0.849  -0.396  1.00 20.00    +0.043 H 
ATOM     74 H74  LIG A   1      11.045  -0.657   0.543  1.00 20.00    +0.043 H 
ATOM     75 H75  LIG A   1      12.065   2.048   0.602  1.00 20.00    +0.118 HD
ATOM     76 H76  LIG A   1      12.235   0.994   1.984  1.00 20.00    +0.118 HD
ATOM     77 H77  LIG A   1       1.955   1.283   0.440  1.00 20.00    +0.064 H 
ATOM     78 H78  LIG A   1      -0.281   1.663   1.205  1.00 20.00    +0.063 H 
ATOM     79 H79  LIG A   1      -5.201  -1.805  -1.306  1.00 20.00    +0.068 H 
ENDROOT
TORSDOF 0
