ROOT
ATOM      1 C1   LIG A   1      -1.808   0.349  -0.057  1.00 20.00    +0.000 C 
ATOM      2 C2   LIG A   1      -0.806  -0.762   0.158  1.00 20.00    +0.000 C 
ATOM      3 Se3  LIG A   1       0.797  -0.090   1.019  1.00 20.00    +0.000 Se
ATOM      4 C4   LIG A   1       2.215   0.275  -0.226  1.00 20.00    +0.000 C 
ATOM      5 N5   LIG A   1     -13.351   1.949  -1.431  1.00 20.00    -0.330 NA
ATOM      6 C6   LIG A   1     -12.100   1.892  -2.206  1.00 20.00    -0.008 C 
ATOM      7 C7   LIG A   1     -11.306   0.702  -1.727  1.00 20.00    -0.040 C 
ATOM      8 C8   LIG A   1     -10.013   0.651  -2.532  1.00 20.00    -0.039 C 
ATOM      9 C9   LIG A   1      -9.244  -0.561  -2.021  1.00 20.00    -0.005 C 
ATOM     10 N10  LIG A   1      -8.961  -0.431  -0.621  1.00 20.00    -0.317 NA
ATOM     11 C11  LIG A   1      -8.238  -1.625  -0.179  1.00 20.00    -0.003 C 
ATOM     12 C12  LIG A   1      -7.931  -1.514   1.309  1.00 20.00    -0.023 C 
ATOM     13 C13  LIG A   1      -7.192  -2.750   1.737  1.00 20.00    +0.016 C 
ATOM     14 N14  LIG A   1      -5.954  -2.974   1.081  1.00 20.00    -0.385 NA
ATOM     15 C15  LIG A   1      -4.762  -2.246   1.221  1.00 20.00    +0.034 A 
ATOM     16 C16  LIG A   1      -4.580  -1.176   2.069  1.00 20.00    -0.038 A 
ATOM     17 C17  LIG A   1      -3.380  -0.494   2.164  1.00 20.00    -0.049 A 
ATOM     18 C18  LIG A   1      -2.294  -0.856   1.407  1.00 20.00    +0.017 A 
ATOM     19 C19  LIG A   1      -1.028  -0.137   1.508  1.00 20.00    +0.134 A 
ATOM     20 C20  LIG A   1      -0.821   0.958   2.319  1.00 20.00    -0.015 A 
ATOM     21 C21  LIG A   1       0.487   1.358   2.143  1.00 20.00    -0.015 A 
ATOM     22 C22  LIG A   1       1.036   0.473   1.214  1.00 20.00    +0.134 A 
ATOM     23 C23  LIG A   1       2.424   0.575   0.768  1.00 20.00    +0.017 A 
ATOM     24 C24  LIG A   1       3.275   1.561   1.217  1.00 20.00    -0.049 A 
ATOM     25 C25  LIG A   1       4.588   1.621   0.778  1.00 20.00    -0.038 A 
ATOM     26 C26  LIG A   1       5.126   0.724  -0.114  1.00 20.00    +0.034 A 
ATOM     27 N27  LIG A   1       6.462   0.746  -0.572  1.00 20.00    -0.385 NA
ATOM     28 C28  LIG A   1       7.486   1.658  -0.166  1.00 20.00    +0.016 C 
ATOM     29 C29  LIG A   1       8.005   1.526   1.206  1.00 20.00    -0.023 C 
ATOM     30 C30  LIG A   1       8.624   0.281   1.688  1.00 20.00    -0.003 C 
ATOM     31 N31  LIG A   1       9.753  -0.307   1.205  1.00 20.00    -0.317 NA
ATOM     32 C32  LIG A   1      10.032  -1.006   0.055  1.00 20.00    -0.005 C 
ATOM     33 C33  LIG A   1      10.050  -0.335  -1.264  1.00 20.00    -0.039 C 
ATOM     34 C34  LIG A   1      11.021   0.812  -1.276  1.00 20.00    -0.040 C 
ATOM     35 C35  LIG A   1      11.003   1.477  -2.634  1.00 20.00    -0.008 C 
ATOM     36 N36  LIG A   1      11.377   0.548  -3.660  1.00 20.00    -0.330 NA
ATOM     37 C37  LIG A   1       4.249  -0.273  -0.563  1.00 20.00    -0.038 A 
ATOM     38 C38  LIG A   1       2.941  -0.338  -0.131  1.00 20.00    -0.049 A 
ATOM     39 O39  LIG A   1       0.112  -0.393   0.864  1.00 20.00    -0.456 OA
ATOM     40 C40  LIG A   1      -2.446  -1.924   0.550  1.00 20.00    -0.049 A 
ATOM     41 C41  LIG A   1      -3.643  -2.600   0.458  1.00 20.00    -0.038 A 
ATOM     42 H42  LIG A   1      -2.798   0.137   0.393  1.00 20.00    +0.000 H 
ATOM     43 H43  LIG A   1      -1.950   0.487  -1.137  1.00 20.00    +0.000 H 
ATOM     44 H44  LIG A   1      -1.435   1.258   0.454  1.00 20.00    +0.000 H 
ATOM     45 H45  LIG A   1      -1.298  -1.496   0.849  1.00 20.00    +0.000 H 
ATOM     46 H46  LIG A   1      -0.514  -1.258  -0.798  1.00 20.00    +0.000 H 
ATOM     47 H47  LIG A   1       2.364   1.381  -0.271  1.00 20.00    +0.000 H 
ATOM     48 H48  LIG A   1       2.046  -0.122  -1.237  1.00 20.00    +0.000 H 
ATOM     49 H49  LIG A   1       3.188  -0.160   0.119  1.00 20.00    +0.000 H 
ATOM     50 H50  LIG A   1     -13.804   1.017  -1.542  1.00 20.00    +0.118 HD
ATOM     51 H51  LIG A   1     -13.025   2.008  -0.421  1.00 20.00    +0.118 HD
ATOM     52 H52  LIG A   1     -11.501   2.808  -1.996  1.00 20.00    +0.043 H 
ATOM     53 H53  LIG A   1     -12.326   1.794  -3.266  1.00 20.00    +0.043 H 
ATOM     54 H54  LIG A   1     -11.874  -0.237  -1.953  1.00 20.00    +0.028 H 
ATOM     55 H55  LIG A   1     -11.078   0.770  -0.639  1.00 20.00    +0.028 H 
ATOM     56 H56  LIG A   1     -10.274   0.534  -3.596  1.00 20.00    +0.028 H 
ATOM     57 H57  LIG A   1      -9.426   1.579  -2.330  1.00 20.00    +0.028 H 
ATOM     58 H58  LIG A   1      -8.301  -0.592  -2.620  1.00 20.00    +0.043 H 
ATOM     59 H59  LIG A   1      -9.842  -1.465  -2.221  1.00 20.00    +0.043 H 
ATOM     60 H60  LIG A   1      -8.439   0.433  -0.391  1.00 20.00    +0.122 HD
ATOM     61 H61  LIG A   1      -7.291  -1.688  -0.746  1.00 20.00    +0.043 H 
ATOM     62 H62  LIG A   1      -8.868  -2.507  -0.336  1.00 20.00    +0.043 H 
ATOM     63 H63  LIG A   1      -7.304  -0.624   1.465  1.00 20.00    +0.030 H 
ATOM     64 H64  LIG A   1      -8.890  -1.394   1.869  1.00 20.00    +0.030 H 
ATOM     65 H65  LIG A   1      -7.048  -2.741   2.861  1.00 20.00    +0.049 H 
ATOM     66 H66  LIG A   1      -7.886  -3.626   1.581  1.00 20.00    +0.049 H 
ATOM     67 H67  LIG A   1      -5.920  -3.794   0.398  1.00 20.00    +0.160 HD
ATOM     68 H68  LIG A   1      -5.375  -0.843   2.699  1.00 20.00    +0.064 H 
ATOM     69 H69  LIG A   1      -3.242   0.351   2.839  1.00 20.00    +0.063 H 
ATOM     70 H70  LIG A   1      -1.516   1.442   2.979  1.00 20.00    +0.066 H 
ATOM     71 H71  LIG A   1       0.979   2.187   2.628  1.00 20.00    +0.066 H 
ATOM     72 H72  LIG A   1       2.882   2.299   1.933  1.00 20.00    +0.063 H 
ATOM     73 H73  LIG A   1       5.178   2.431   1.173  1.00 20.00    +0.064 H 
ATOM     74 H74  LIG A   1       6.723   0.017  -1.285  1.00 20.00    +0.160 HD
ATOM     75 H75  LIG A   1       8.244   1.873  -0.942  1.00 20.00    +0.049 H 
ATOM     76 H76  LIG A   1       6.918   2.680  -0.155  1.00 20.00    +0.049 H 
ATOM     77 H77  LIG A   1       8.843   2.320   1.278  1.00 20.00    +0.030 H 
ATOM     78 H78  LIG A   1       7.283   1.949   1.990  1.00 20.00    +0.030 H 
ATOM     79 H79  LIG A   1       8.716   0.440   2.846  1.00 20.00    +0.043 H 
ATOM     80 H80  LIG A   1       7.781  -0.507   1.629  1.00 20.00    +0.043 H 
ATOM     81 H81  LIG A   1      10.592  -0.161   1.863  1.00 20.00    +0.122 HD
ATOM     82 H82  LIG A   1      10.944  -1.695   0.165  1.00 20.00    +0.043 H 
ATOM     83 H83  LIG A   1       9.211  -1.817  -0.051  1.00 20.00    +0.043 H 
ATOM     84 H84  LIG A   1       9.054  -0.130  -1.644  1.00 20.00    +0.028 H 
ATOM     85 H85  LIG A   1      10.428  -1.140  -1.997  1.00 20.00    +0.028 H 
ATOM     86 H86  LIG A   1      12.053   0.460  -1.046  1.00 20.00    +0.028 H 
ATOM     87 H87  LIG A   1      10.753   1.551  -0.499  1.00 20.00    +0.028 H 
ATOM     88 H88  LIG A   1      10.004   1.922  -2.810  1.00 20.00    +0.043 H 
ATOM     89 H89  LIG A   1      11.775   2.286  -2.576  1.00 20.00    +0.043 H 
ATOM     90 H90  LIG A   1      11.895  -0.271  -3.318  1.00 20.00    +0.118 HD
ATOM     91 H91  LIG A   1      10.594   0.309  -4.301  1.00 20.00    +0.118 HD
ATOM     92 H92  LIG A   1       4.564  -1.033  -1.267  1.00 20.00    +0.064 H 
ATOM     93 H93  LIG A   1       2.269  -1.131  -0.494  1.00 20.00    +0.063 H 
ATOM     94 H94  LIG A   1      -1.578  -2.198  -0.040  1.00 20.00    +0.063 H 
ATOM     95 H95  LIG A   1      -3.679  -3.432  -0.241  1.00 20.00    +0.064 H 
ENDROOT
TORSDOF 0
