ROOT
ATOM      1 N1   LIG A   1       5.006   1.489  -1.769  1.00 20.00    -0.330 NA
ATOM      2 C2   LIG A   1       5.928   1.047  -0.732  1.00 20.00    -0.008 C 
ATOM      3 C3   LIG A   1       5.877  -0.469  -0.531  1.00 20.00    -0.040 C 
ATOM      4 C4   LIG A   1       4.500  -1.039  -0.165  1.00 20.00    -0.039 C 
ATOM      5 C5   LIG A   1       3.920  -0.439   1.119  1.00 20.00    -0.005 C 
ATOM      6 N6   LIG A   1       2.732  -1.156   1.598  1.00 20.00    -0.317 NA
ATOM      7 C7   LIG A   1       1.556  -0.910   0.754  1.00 20.00    -0.003 C 
ATOM      8 C8   LIG A   1       0.343  -1.630   1.351  1.00 20.00    -0.023 C 
ATOM      9 C9   LIG A   1      -0.903  -1.477   0.477  1.00 20.00    +0.017 C 
ATOM     10 N10  LIG A   1      -1.377  -0.095   0.517  1.00 20.00    -0.370 NA
ATOM     11 C11  LIG A   1      -2.558   0.119  -0.199  1.00 20.00    +0.126 A 
ATOM     12 C12  LIG A   1      -2.641  -0.102  -1.566  1.00 20.00    -0.019 A 
ATOM     13 C13  LIG A   1      -3.846   0.145  -2.216  1.00 20.00    -0.049 A 
ATOM     14 C14  LIG A   1      -4.939   0.616  -1.484  1.00 20.00    +0.000 A 
ATOM     15 C15  LIG A   1      -6.179   0.883  -2.092  1.00 20.00    -0.053 A 
ATOM     16 C16  LIG A   1      -7.247   1.356  -1.332  1.00 20.00    -0.062 A 
ATOM     17 C17  LIG A   1      -7.079   1.565   0.032  1.00 20.00    -0.060 A 
ATOM     18 C18  LIG A   1      -5.843   1.299   0.631  1.00 20.00    -0.036 A 
ATOM     19 C19  LIG A   1      -4.762   0.825  -0.102  1.00 20.00    +0.073 A 
ATOM     20 N20  LIG A   1      -3.595   0.584   0.523  1.00 20.00    -0.231 NA
ATOM     21 O21  LIG A   1       2.418   0.069   0.336  1.00 20.00    -0.504 OA
ATOM     22 C22  LIG A   1       1.092  -0.172   0.106  1.00 20.00    +0.161 A 
ATOM     23 C23  LIG A   1       0.621  -1.435  -0.239  1.00 20.00    -0.016 A 
ATOM     24 C24  LIG A   1      -0.750  -1.619  -0.461  1.00 20.00    -0.055 A 
ATOM     25 C25  LIG A   1      -1.638  -0.545  -0.339  1.00 20.00    -0.016 A 
ATOM     26 C26  LIG A   1      -1.150   0.708   0.006  1.00 20.00    +0.161 A 
ATOM     27 O27  LIG A   1      -2.014   1.757   0.126  1.00 20.00    -0.504 OA
ATOM     28 C28  LIG A   1       0.208   0.895   0.228  1.00 20.00    +0.200 A 
ATOM     29 O29  LIG A   1       0.664   2.141   0.567  1.00 20.00    -0.502 OA
ATOM     30 H30  LIG A   1       5.236   1.033  -2.652  1.00 20.00    +0.118 HD
ATOM     31 H31  LIG A   1       5.123   2.490  -1.925  1.00 20.00    +0.118 HD
ATOM     32 H32  LIG A   1       6.947   1.335  -1.014  1.00 20.00    +0.043 H 
ATOM     33 H33  LIG A   1       5.698   1.566   0.203  1.00 20.00    +0.043 H 
ATOM     34 H34  LIG A   1       6.225  -0.966  -1.445  1.00 20.00    +0.028 H 
ATOM     35 H35  LIG A   1       6.593  -0.738   0.256  1.00 20.00    +0.028 H 
ATOM     36 H36  LIG A   1       3.811  -0.887  -1.004  1.00 20.00    +0.028 H 
ATOM     37 H37  LIG A   1       4.607  -2.125  -0.043  1.00 20.00    +0.028 H 
ATOM     38 H38  LIG A   1       4.680  -0.505   1.907  1.00 20.00    +0.043 H 
ATOM     39 H39  LIG A   1       3.691   0.626   0.992  1.00 20.00    +0.043 H 
ATOM     40 H40  LIG A   1       2.523  -0.828   2.542  1.00 20.00    +0.122 HD
ATOM     41 H41  LIG A   1       1.358   0.166   0.690  1.00 20.00    +0.043 H 
ATOM     42 H42  LIG A   1       1.727  -1.289  -0.259  1.00 20.00    +0.043 H 
ATOM     43 H43  LIG A   1       0.569  -2.700   1.446  1.00 20.00    +0.030 H 
ATOM     44 H44  LIG A   1       0.140  -1.253   2.362  1.00 20.00    +0.030 H 
ATOM     45 H45  LIG A   1      -0.666  -1.789  -0.547  1.00 20.00    +0.049 H 
ATOM     46 H46  LIG A   1      -1.683  -2.146   0.861  1.00 20.00    +0.049 H 
ATOM     47 H47  LIG A   1      -1.632   0.178   1.467  1.00 20.00    +0.162 HD
ATOM     48 H48  LIG A   1      -1.778  -0.442  -2.127  1.00 20.00    +0.066 H 
ATOM     49 H49  LIG A   1      -3.919  -0.023  -3.286  1.00 20.00    +0.063 H 
ATOM     50 H50  LIG A   1      -6.316   0.723  -3.159  1.00 20.00    +0.063 H 
ATOM     51 H51  LIG A   1      -8.204   1.562  -1.803  1.00 20.00    +0.062 H 
ATOM     52 H52  LIG A   1      -7.904   1.935   0.635  1.00 20.00    +0.062 H 
ATOM     53 H53  LIG A   1      -5.719   1.466   1.698  1.00 20.00    +0.065 H 
ATOM     54 H54  LIG A   1       2.902  -0.766   0.214  1.00 20.00    +0.293 HD
ATOM     55 H55  LIG A   1       1.292  -2.282  -0.339  1.00 20.00    +0.066 H 
ATOM     56 H56  LIG A   1      -1.130  -2.601  -0.732  1.00 20.00    +0.063 H 
ATOM     57 H57  LIG A   1      -2.701  -0.684  -0.511  1.00 20.00    +0.066 H 
ATOM     58 H58  LIG A   1      -1.444   2.514   0.371  1.00 20.00    +0.293 HD
ATOM     59 H59  LIG A   1       1.630   2.020   0.668  1.00 20.00    +0.293 HD
ENDROOT
TORSDOF 0
