ROOT
ATOM      1 C1   LIG A   1      -2.301  -1.187   1.048  1.00 20.00    -0.044 C 
ATOM      2 C2   LIG A   1      -1.177  -0.585   0.155  1.00 20.00    +0.047 C 
ATOM      3 C3   LIG A   1      -1.333  -1.212  -1.252  1.00 20.00    -0.044 C 
ATOM      4 C4   LIG A   1      -1.477   0.943   0.069  1.00 20.00    -0.006 C 
ATOM      5 C5   LIG A   1      -0.232   1.829   0.097  1.00 20.00    +0.058 C 
ATOM      6 O6   LIG A   1      -0.525   3.087  -0.529  1.00 20.00    -0.393 OA
ATOM      7 C7   LIG A   1       0.932   1.163  -0.609  1.00 20.00    -0.006 C 
ATOM      8 C8   LIG A   1       1.335  -0.152   0.109  1.00 20.00    +0.047 C 
ATOM      9 C9   LIG A   1       2.094  -1.023  -0.928  1.00 20.00    -0.044 C 
ATOM     10 C10  LIG A   1       2.344   0.212   1.232  1.00 20.00    -0.044 C 
ATOM     11 N11  LIG A   1       0.154  -0.768   0.772  1.00 20.00    -0.144 NA
ATOM     12 O12  LIG A   1       0.404  -2.150   1.067  1.00 20.00    -0.120 OA
ATOM     13 C13  LIG A   1      -4.589  -0.082   4.608  1.00 20.00    -0.060 C 
ATOM     14 C14  LIG A   1      -3.671  -0.354   3.399  1.00 20.00    -0.016 C 
ATOM     15 C15  LIG A   1      -4.019  -1.765   2.818  1.00 20.00    -0.023 C 
ATOM     16 C16  LIG A   1      -4.738  -1.741   1.494  1.00 20.00    -0.044 A 
ATOM     17 C17  LIG A   1      -6.060  -1.304   1.399  1.00 20.00    -0.058 A 
ATOM     18 C18  LIG A   1      -6.564  -0.892   0.166  1.00 20.00    -0.054 A 
ATOM     19 C19  LIG A   1      -5.737  -0.875  -0.973  1.00 20.00    +0.009 A 
ATOM     20 C20  LIG A   1      -4.461  -1.461  -0.892  1.00 20.00    +0.130 A 
ATOM     21 C21  LIG A   1      -3.998  -1.959   0.327  1.00 20.00    -0.016 A 
ATOM     22 O22  LIG A   1      -3.651  -1.420  -2.006  1.00 20.00    -0.464 OA
ATOM     23 C23  LIG A   1      -2.292  -1.247  -1.839  1.00 20.00    +0.104 C 
ATOM     24 C24  LIG A   1      -1.626  -0.131  -1.469  1.00 20.00    +0.082 C 
ATOM     25 C25  LIG A   1      -0.147  -0.150  -1.517  1.00 20.00    -0.010 A 
ATOM     26 C26  LIG A   1       0.578  -1.088  -0.775  1.00 20.00    -0.052 A 
ATOM     27 C27  LIG A   1       1.977  -1.114  -0.827  1.00 20.00    -0.038 A 
ATOM     28 C28  LIG A   1       2.697  -0.214  -1.624  1.00 20.00    +0.034 A 
ATOM     29 N29  LIG A   1       4.093  -0.260  -1.570  1.00 20.00    -0.385 NA
ATOM     30 C30  LIG A   1       4.894   0.555  -2.479  1.00 20.00    +0.016 C 
ATOM     31 C31  LIG A   1       6.389   0.298  -2.265  1.00 20.00    -0.023 C 
ATOM     32 C32  LIG A   1       6.935   0.824  -0.928  1.00 20.00    -0.003 C 
ATOM     33 N33  LIG A   1       6.366   0.198   0.270  1.00 20.00    -0.317 NA
ATOM     34 C34  LIG A   1       6.836  -1.164   0.526  1.00 20.00    -0.005 C 
ATOM     35 C35  LIG A   1       8.257  -1.250   1.095  1.00 20.00    -0.039 C 
ATOM     36 C36  LIG A   1       8.399  -0.849   2.568  1.00 20.00    -0.040 C 
ATOM     37 C37  LIG A   1       8.056   0.609   2.868  1.00 20.00    -0.008 C 
ATOM     38 N38  LIG A   1       8.417   0.930   4.249  1.00 20.00    -0.330 NA
ATOM     39 C39  LIG A   1       1.969   0.752  -2.322  1.00 20.00    -0.038 A 
ATOM     40 C40  LIG A   1       0.568   0.775  -2.285  1.00 20.00    -0.052 A 
ATOM     41 C41  LIG A   1      -2.359   1.147  -1.164  1.00 20.00    +0.264 C 
ATOM     42 O42  LIG A   1      -2.166   2.148  -1.855  1.00 20.00    -0.268 OA
ATOM     43 N43  LIG A   1      -3.259   1.122  -0.105  1.00 20.00    -0.277 NA
ATOM     44 C44  LIG A   1      -4.447   1.977  -0.233  1.00 20.00    +0.029 C 
ATOM     45 C45  LIG A   1      -5.075   2.212  -1.626  1.00 20.00    -0.034 C 
ATOM     46 C46  LIG A   1      -5.281   1.050  -2.618  1.00 20.00    -0.034 C 
ATOM     47 C47  LIG A   1      -6.213  -0.118  -2.204  1.00 20.00    +0.085 C 
ATOM     48 C48  LIG A   1      -6.473  -1.059  -3.380  1.00 20.00    +0.311 C 
ATOM     49 O49  LIG A   1      -6.354  -2.273  -3.412  1.00 20.00    -0.252 OA
ATOM     50 O50  LIG A   1      -6.950  -0.416  -4.469  1.00 20.00    -0.481 OA
ATOM     51 C51  LIG A   1      -2.805   0.663   1.146  1.00 20.00    +0.246 C 
ATOM     52 O52  LIG A   1      -1.697   0.139   1.309  1.00 20.00    -0.273 OA
ATOM     53 C53  LIG A   1      -3.708   0.860   2.403  1.00 20.00    +0.088 C 
ATOM     54 N54  LIG A   1      -3.228   2.086   3.094  1.00 20.00    -0.320 NA
ATOM     55 H55  LIG A   1      -3.292  -0.901   0.673  1.00 20.00    +0.025 H 
ATOM     56 H56  LIG A   1      -2.226  -0.825   2.081  1.00 20.00    +0.025 H 
ATOM     57 H57  LIG A   1      -2.274  -2.282   1.068  1.00 20.00    +0.025 H 
ATOM     58 H58  LIG A   1      -1.107  -2.283  -1.250  1.00 20.00    +0.025 H 
ATOM     59 H59  LIG A   1      -2.365  -1.107  -1.609  1.00 20.00    +0.025 H 
ATOM     60 H60  LIG A   1      -0.696  -0.735  -2.000  1.00 20.00    +0.025 H 
ATOM     61 H61  LIG A   1      -2.066   1.164  -0.830  1.00 20.00    +0.031 H 
ATOM     62 H62  LIG A   1      -2.111   1.267   0.906  1.00 20.00    +0.031 H 
ATOM     63 H63  LIG A   1       0.040   2.055   1.135  1.00 20.00    +0.060 H 
ATOM     64 H64  LIG A   1      -1.288   3.447  -0.047  1.00 20.00    +0.210 HD
ATOM     65 H65  LIG A   1       0.654   0.982  -1.656  1.00 20.00    +0.031 H 
ATOM     66 H66  LIG A   1       1.780   1.860  -0.663  1.00 20.00    +0.031 H 
ATOM     67 H67  LIG A   1       2.890  -0.441  -1.408  1.00 20.00    +0.025 H 
ATOM     68 H68  LIG A   1       2.576  -1.892  -0.465  1.00 20.00    +0.025 H 
ATOM     69 H69  LIG A   1       1.438  -1.388  -1.723  1.00 20.00    +0.025 H 
ATOM     70 H70  LIG A   1       3.209   0.751   0.826  1.00 20.00    +0.025 H 
ATOM     71 H71  LIG A   1       2.731  -0.680   1.738  1.00 20.00    +0.025 H 
ATOM     72 H72  LIG A   1       1.887   0.853   1.995  1.00 20.00    +0.025 H 
ATOM     73 H73  LIG A   1      -4.290   0.824   5.145  1.00 20.00    +0.023 H 
ATOM     74 H74  LIG A   1      -5.632   0.036   4.298  1.00 20.00    +0.023 H 
ATOM     75 H75  LIG A   1      -4.538  -0.907   5.329  1.00 20.00    +0.023 H 
ATOM     76 H76  LIG A   1      -2.652  -0.436   3.810  1.00 20.00    +0.032 H 
ATOM     77 H77  LIG A   1      -3.080  -2.325   2.705  1.00 20.00    +0.032 H 
ATOM     78 H78  LIG A   1      -4.610  -2.355   3.530  1.00 20.00    +0.032 H 
ATOM     79 H79  LIG A   1      -6.670  -1.186   2.292  1.00 20.00    +0.063 H 
ATOM     80 H80  LIG A   1      -7.573  -0.484   0.128  1.00 20.00    +0.063 H 
ATOM     81 H81  LIG A   1      -2.990  -2.361   0.402  1.00 20.00    +0.067 H 
ATOM     82 H82  LIG A   1      -1.787  -2.154  -2.157  1.00 20.00    +0.105 H 
ATOM     83 H83  LIG A   1       0.064  -1.793  -0.124  1.00 20.00    +0.063 H 
ATOM     84 H84  LIG A   1       2.506  -1.839  -0.214  1.00 20.00    +0.064 H 
ATOM     85 H85  LIG A   1       4.422  -1.221  -1.495  1.00 20.00    +0.160 HD
ATOM     86 H86  LIG A   1       4.641   0.307  -3.518  1.00 20.00    +0.049 H 
ATOM     87 H87  LIG A   1       4.690   1.622  -2.320  1.00 20.00    +0.049 H 
ATOM     88 H88  LIG A   1       6.936   0.807  -3.068  1.00 20.00    +0.030 H 
ATOM     89 H89  LIG A   1       6.606  -0.772  -2.380  1.00 20.00    +0.030 H 
ATOM     90 H90  LIG A   1       6.720   1.897  -0.866  1.00 20.00    +0.043 H 
ATOM     91 H91  LIG A   1       8.027   0.742  -0.927  1.00 20.00    +0.043 H 
ATOM     92 H92  LIG A   1       5.345   0.173   0.141  1.00 20.00    +0.122 HD
ATOM     93 H93  LIG A   1       6.151  -1.628   1.247  1.00 20.00    +0.043 H 
ATOM     94 H94  LIG A   1       6.765  -1.773  -0.383  1.00 20.00    +0.043 H 
ATOM     95 H95  LIG A   1       8.961  -0.671   0.487  1.00 20.00    +0.028 H 
ATOM     96 H96  LIG A   1       8.582  -2.296   1.010  1.00 20.00    +0.028 H 
ATOM     97 H97  LIG A   1       9.439  -1.044   2.863  1.00 20.00    +0.028 H 
ATOM     98 H98  LIG A   1       7.775  -1.510   3.185  1.00 20.00    +0.028 H 
ATOM     99 H99  LIG A   1       8.596   1.276   2.189  1.00 20.00    +0.043 H 
ATOM    100 H100 LIG A   1       6.983   0.786   2.750  1.00 20.00    +0.043 H 
ATOM    101 H101 LIG A   1       8.195   1.909   4.429  1.00 20.00    +0.118 HD
ATOM    102 H102 LIG A   1       9.424   0.838   4.367  1.00 20.00    +0.118 HD
ATOM    103 H103 LIG A   1       2.468   1.507  -2.921  1.00 20.00    +0.064 H 
ATOM    104 H104 LIG A   1       0.046   1.533  -2.864  1.00 20.00    +0.063 H 
ATOM    105 H105 LIG A   1      -5.247   1.577   0.388  1.00 20.00    +0.050 H 
ATOM    106 H106 LIG A   1      -4.185   2.950   0.202  1.00 20.00    +0.050 H 
ATOM    107 H107 LIG A   1      -4.476   2.973  -2.144  1.00 20.00    +0.029 H 
ATOM    108 H108 LIG A   1      -6.050   2.692  -1.464  1.00 20.00    +0.029 H 
ATOM    109 H109 LIG A   1      -5.716   1.514  -3.514  1.00 20.00    +0.028 H 
ATOM    110 H110 LIG A   1      -4.316   0.680  -2.969  1.00 20.00    +0.028 H 
ATOM    111 H111 LIG A   1      -7.195   0.318  -1.974  1.00 20.00    +0.047 H 
ATOM    112 H112 LIG A   1      -7.073  -1.137  -5.123  1.00 20.00    +0.296 HD
ATOM    113 H113 LIG A   1      -4.749   1.036   2.143  1.00 20.00    +0.057 H 
ATOM    114 H114 LIG A   1      -2.288   1.894   3.454  1.00 20.00    +0.119 HD
ATOM    115 H115 LIG A   1      -3.096   2.839   2.417  1.00 20.00    +0.119 HD
ENDROOT
TORSDOF 0
