ROOT
ATOM      1 C1   LIG A   1      -8.004  -0.293  -0.058  1.00 20.00    -0.060 C 
ATOM      2 C2   LIG A   1      -6.530  -0.741  -0.093  1.00 20.00    -0.016 C 
ATOM      3 C3   LIG A   1      -5.664   0.397  -0.696  1.00 20.00    -0.023 C 
ATOM      4 C4   LIG A   1      -4.361  -0.044  -1.342  1.00 20.00    -0.046 C 
ATOM      5 C5   LIG A   1      -3.268   0.706  -1.612  1.00 20.00    -0.059 C 
ATOM      6 C6   LIG A   1      -2.926   1.923  -0.894  1.00 20.00    -0.054 C 
ATOM      7 C7   LIG A   1      -1.641   2.229  -0.579  1.00 20.00    +0.009 C 
ATOM      8 C8   LIG A   1      -0.546   1.810  -1.417  1.00 20.00    +0.131 A 
ATOM      9 C9   LIG A   1      -0.421   1.779  -2.803  1.00 20.00    -0.015 A 
ATOM     10 C10  LIG A   1       0.883   1.327  -3.116  1.00 20.00    -0.015 A 
ATOM     11 C11  LIG A   1       1.524   1.128  -1.913  1.00 20.00    +0.134 A 
ATOM     12 C12  LIG A   1       2.867   0.710  -1.523  1.00 20.00    +0.017 A 
ATOM     13 C13  LIG A   1       3.776   0.231  -2.475  1.00 20.00    -0.049 A 
ATOM     14 C14  LIG A   1       5.074  -0.153  -2.106  1.00 20.00    -0.038 A 
ATOM     15 C15  LIG A   1       5.499  -0.091  -0.776  1.00 20.00    +0.034 A 
ATOM     16 N16  LIG A   1       6.800  -0.388  -0.367  1.00 20.00    -0.385 NA
ATOM     17 C17  LIG A   1       7.633  -1.283  -1.168  1.00 20.00    +0.022 C 
ATOM     18 C18  LIG A   1       8.886  -1.683  -0.397  1.00 20.00    +0.022 C 
ATOM     19 C19  LIG A   1       8.648  -2.655   0.746  1.00 20.00    +0.092 C 
ATOM     20 N20  LIG A   1       9.627  -3.336   1.246  1.00 20.00    -0.289 NA
ATOM     21 N21  LIG A   1       7.425  -2.815   1.320  1.00 20.00    -0.388 NA
ATOM     22 C22  LIG A   1       4.601   0.425   0.165  1.00 20.00    -0.038 A 
ATOM     23 C23  LIG A   1       3.301   0.804  -0.196  1.00 20.00    -0.049 A 
ATOM     24 O24  LIG A   1       0.665   1.415  -0.896  1.00 20.00    -0.456 OA
ATOM     25 C25  LIG A   1      -1.394   2.846   0.800  1.00 20.00    +0.085 C 
ATOM     26 C26  LIG A   1      -0.331   3.935   0.685  1.00 20.00    +0.311 C 
ATOM     27 O27  LIG A   1      -0.373   4.895  -0.071  1.00 20.00    -0.252 OA
ATOM     28 O28  LIG A   1       0.706   3.809   1.535  1.00 20.00    -0.481 OA
ATOM     29 C29  LIG A   1      -1.071   1.738   1.849  1.00 20.00    -0.034 C 
ATOM     30 C30  LIG A   1      -2.265   0.816   2.180  1.00 20.00    -0.034 C 
ATOM     31 C31  LIG A   1      -2.228  -0.623   1.591  1.00 20.00    +0.025 C 
ATOM     32 N32  LIG A   1      -3.542  -1.111   1.105  1.00 20.00    -0.318 NA
ATOM     33 C33  LIG A   1      -3.558  -1.907  -0.037  1.00 20.00    +0.007 C 
ATOM     34 C34  LIG A   1      -4.027  -1.460  -1.217  1.00 20.00    -0.043 C 
ATOM     35 C35  LIG A   1      -4.682  -0.876   1.874  1.00 20.00    +0.243 C 
ATOM     36 O36  LIG A   1      -4.601  -0.445   3.033  1.00 20.00    -0.273 OA
ATOM     37 C37  LIG A   1      -6.100  -1.207   1.325  1.00 20.00    +0.088 C 
ATOM     38 N38  LIG A   1      -6.408  -2.642   1.540  1.00 20.00    -0.320 NA
ATOM     39 C39  LIG A   1      -3.184   0.991  -0.175  1.00 20.00    -0.048 C 
ATOM     40 C40  LIG A   1      -2.230  -0.181  -0.019  1.00 20.00    +0.015 C 
ATOM     41 N41  LIG A   1      -0.857   0.293  -0.042  1.00 20.00    -0.357 NA
ATOM     42 C42  LIG A   1       0.232  -0.532  -0.011  1.00 20.00    +0.195 C 
ATOM     43 N43  LIG A   1       0.194  -1.821  -0.028  1.00 20.00    -0.269 NA
ATOM     44 N44  LIG A   1       1.405   0.162   0.024  1.00 20.00    -0.298 NA
ATOM     45 C45  LIG A   1       2.693  -0.234   0.178  1.00 20.00    +0.192 C 
ATOM     46 N46  LIG A   1       3.113  -1.427   0.415  1.00 20.00    -0.269 NA
ATOM     47 N47  LIG A   1       3.601   0.765   0.074  1.00 20.00    -0.370 NA
ATOM     48 H48  LIG A   1      -8.128   0.615   0.542  1.00 20.00    +0.023 H 
ATOM     49 H49  LIG A   1      -8.368  -0.084  -1.069  1.00 20.00    +0.023 H 
ATOM     50 H50  LIG A   1      -8.643  -1.072   0.369  1.00 20.00    +0.023 H 
ATOM     51 H51  LIG A   1      -6.516  -1.599  -0.778  1.00 20.00    +0.032 H 
ATOM     52 H52  LIG A   1      -6.240   0.889  -1.493  1.00 20.00    +0.032 H 
ATOM     53 H53  LIG A   1      -5.497   1.160   0.073  1.00 20.00    +0.032 H 
ATOM     54 H54  LIG A   1      -2.417   0.176  -2.043  1.00 20.00    +0.063 H 
ATOM     55 H55  LIG A   1      -3.717   2.323  -0.263  1.00 20.00    +0.063 H 
ATOM     56 H56  LIG A   1      -1.193   2.068  -3.504  1.00 20.00    +0.066 H 
ATOM     57 H57  LIG A   1       1.305   1.194  -4.101  1.00 20.00    +0.066 H 
ATOM     58 H58  LIG A   1       3.496   0.159  -3.522  1.00 20.00    +0.063 H 
ATOM     59 H59  LIG A   1       5.748  -0.483  -2.892  1.00 20.00    +0.064 H 
ATOM     60 H60  LIG A   1       6.866  -0.559   0.637  1.00 20.00    +0.160 HD
ATOM     61 H61  LIG A   1       7.941  -0.763  -2.083  1.00 20.00    +0.049 H 
ATOM     62 H62  LIG A   1       7.073  -2.180  -1.457  1.00 20.00    +0.049 H 
ATOM     63 H63  LIG A   1       9.387  -0.800   0.018  1.00 20.00    +0.037 H 
ATOM     64 H64  LIG A   1       9.588  -2.161  -1.091  1.00 20.00    +0.037 H 
ATOM     65 H65  LIG A   1      10.506  -3.114   0.767  1.00 20.00    +0.189 HD
ATOM     66 H66  LIG A   1       6.603  -2.758   0.729  1.00 20.00    +0.157 HD
ATOM     67 H67  LIG A   1       7.410  -3.610   1.954  1.00 20.00    +0.157 HD
ATOM     68 H68  LIG A   1       4.904   0.539   1.203  1.00 20.00    +0.064 H 
ATOM     69 H69  LIG A   1       2.637   1.189   0.576  1.00 20.00    +0.063 H 
ATOM     70 H70  LIG A   1      -2.288   3.378   1.155  1.00 20.00    +0.047 H 
ATOM     71 H71  LIG A   1       1.281   4.570   1.309  1.00 20.00    +0.296 HD
ATOM     72 H72  LIG A   1      -0.195   1.147   1.558  1.00 20.00    +0.028 H 
ATOM     73 H73  LIG A   1      -0.791   2.242   2.784  1.00 20.00    +0.028 H 
ATOM     74 H74  LIG A   1      -3.194   1.334   1.915  1.00 20.00    +0.029 H 
ATOM     75 H75  LIG A   1      -2.291   0.707   3.272  1.00 20.00    +0.029 H 
ATOM     76 H76  LIG A   1      -1.515  -0.667   0.759  1.00 20.00    +0.050 H 
ATOM     77 H77  LIG A   1      -1.887  -1.323   2.363  1.00 20.00    +0.050 H 
ATOM     78 H78  LIG A   1      -3.093  -2.883   0.059  1.00 20.00    +0.082 H 
ATOM     79 H79  LIG A   1      -4.017  -2.075  -2.111  1.00 20.00    +0.064 H 
ATOM     80 H80  LIG A   1      -6.759  -0.672   2.024  1.00 20.00    +0.057 H 
ATOM     81 H81  LIG A   1      -5.740  -3.201   1.013  1.00 20.00    +0.119 HD
ATOM     82 H82  LIG A   1      -6.234  -2.853   2.524  1.00 20.00    +0.119 HD
ATOM     83 H83  LIG A   1      -3.058   1.712   0.640  1.00 20.00    +0.025 H 
ATOM     84 H84  LIG A   1      -3.007   1.518  -1.118  1.00 20.00    +0.025 H 
ATOM     85 H85  LIG A   1      -4.222   0.643  -0.165  1.00 20.00    +0.025 H 
ATOM     86 H86  LIG A   1      -2.431  -0.695   0.927  1.00 20.00    +0.049 H 
ATOM     87 H87  LIG A   1      -2.399  -0.888  -0.839  1.00 20.00    +0.049 H 
ATOM     88 H88  LIG A   1      -0.735   1.130   0.518  1.00 20.00    +0.163 HD
ATOM     89 H89  LIG A   1      -0.770  -2.146  -0.071  1.00 20.00    +0.191 HD
ATOM     90 H90  LIG A   1       1.312   1.157  -0.087  1.00 20.00    +0.173 HD
ATOM     91 H91  LIG A   1       2.256  -2.015   0.433  1.00 20.00    +0.191 HD
ATOM     92 H92  LIG A   1       4.523   0.344   0.173  1.00 20.00    +0.159 HD
ATOM     93 H93  LIG A   1       3.564   1.227  -0.827  1.00 20.00    +0.159 HD
ENDROOT
TORSDOF 0
