MODEL 1
REMARK VINA RESULT:   -12.336      0.000      0.000
REMARK INTER + INTRA:         -12.336
REMARK INTER:                 -12.336
REMARK INTRA:                   0.000
REMARK UNBOUND:                 0.000
ROOT
ATOM      1 C1   LIG A   1      23.165  17.746   5.231  1.00 20.00    -0.060 C 
ATOM      2 C2   LIG A   1      22.184  18.649   6.004  1.00 20.00    -0.016 C 
ATOM      3 C3   LIG A   1      21.504  17.743   7.088  1.00 20.00    -0.023 C 
ATOM      4 C4   LIG A   1      20.721  18.506   8.120  1.00 20.00    -0.048 A 
ATOM      5 C5   LIG A   1      21.245  18.663   9.406  1.00 20.00    -0.058 A 
ATOM      6 C6   LIG A   1      20.842  19.745  10.177  1.00 20.00    -0.051 A 
ATOM      7 C7   LIG A   1      19.973  20.690   9.626  1.00 20.00    +0.017 A 
ATOM      8 C8   LIG A   1      19.223  20.347   8.494  1.00 20.00    -0.051 A 
ATOM      9 C9   LIG A   1      19.592  19.236   7.742  1.00 20.00    -0.058 A 
ATOM     10 C10  LIG A   1      20.038  22.099  10.067  1.00 20.00    +0.140 C 
ATOM     11 C11  LIG A   1      20.319  23.101   9.203  1.00 20.00    +0.047 C 
ATOM     12 C12  LIG A   1      20.938  23.001   7.841  1.00 20.00    +0.256 C 
ATOM     13 O13  LIG A   1      20.784  23.938   7.062  1.00 20.00    -0.269 OA
ATOM     14 N14  LIG A   1      21.961  22.064   7.740  1.00 20.00    -0.278 NA
ATOM     15 C15  LIG A   1      23.300  22.535   8.125  1.00 20.00    +0.029 C 
ATOM     16 C16  LIG A   1      23.423  23.305   9.463  1.00 20.00    -0.034 C 
ATOM     17 C17  LIG A   1      23.270  22.389  10.682  1.00 20.00    -0.034 C 
ATOM     18 C18  LIG A   1      22.963  23.090  12.020  1.00 20.00    +0.085 C 
ATOM     19 C19  LIG A   1      23.051  22.055  13.134  1.00 20.00    +0.311 C 
ATOM     20 O20  LIG A   1      22.348  21.068  13.288  1.00 20.00    -0.252 OA
ATOM     21 O21  LIG A   1      24.053  22.310  14.003  1.00 20.00    -0.481 OA
ATOM     22 C22  LIG A   1      21.692  23.922  12.173  1.00 20.00    +0.009 A 
ATOM     23 C23  LIG A   1      21.852  25.238  12.647  1.00 20.00    -0.052 A 
ATOM     24 C24  LIG A   1      20.754  26.072  12.913  1.00 20.00    -0.038 A 
ATOM     25 C25  LIG A   1      19.445  25.620  12.762  1.00 20.00    +0.038 A 
ATOM     26 N26  LIG A   1      18.317  26.417  12.943  1.00 20.00    -0.385 NA
ATOM     27 C27  LIG A   1      18.346  27.652  13.719  1.00 20.00    +0.016 C 
ATOM     28 C28  LIG A   1      18.382  27.362  15.219  1.00 20.00    -0.023 C 
ATOM     29 C29  LIG A   1      18.366  28.663  16.022  1.00 20.00    -0.003 C 
ATOM     30 N30  LIG A   1      18.353  28.360  17.454  1.00 20.00    -0.317 NA
ATOM     31 C31  LIG A   1      18.356  29.566  18.283  1.00 20.00    -0.005 C 
ATOM     32 C32  LIG A   1      17.044  29.710  19.061  1.00 20.00    -0.039 C 
ATOM     33 C33  LIG A   1      15.799  29.989  18.208  1.00 20.00    -0.040 C 
ATOM     34 C34  LIG A   1      15.839  31.287  17.398  1.00 20.00    -0.008 C 
ATOM     35 N35  LIG A   1      15.961  32.479  18.234  1.00 20.00    -0.330 NA
ATOM     36 C36  LIG A   1      19.276  24.326  12.266  1.00 20.00    +0.004 A 
ATOM     37 C37  LIG A   1      20.369  23.491  11.965  1.00 20.00    +0.133 A 
ATOM     38 O38  LIG A   1      20.030  22.256  11.456  1.00 20.00    -0.456 OA
ATOM     39 C39  LIG A   1      21.804  21.145   6.692  1.00 20.00    +0.246 C 
ATOM     40 O40  LIG A   1      20.867  21.220   5.888  1.00 20.00    -0.273 OA
ATOM     41 C41  LIG A   1      22.854  19.973   6.562  1.00 20.00    +0.088 C 
ATOM     42 N42  LIG A   1      23.917  20.451   5.649  1.00 20.00    -0.320 NA
ATOM     43 C43  LIG A   1      17.393  25.994  15.346  1.00 20.00    -0.056 C 
ATOM     44 C44  LIG A   1      18.093  27.187  14.714  1.00 20.00    -0.002 C 
ATOM     45 S45  LIG A   1      18.605  26.833  13.008  1.00 20.00    -0.087 SA
ATOM     46 C46  LIG A   1      20.024  25.825  13.310  1.00 20.00    +0.205 C 
ATOM     47 O47  LIG A   1      20.563  25.775  14.410  1.00 20.00    -0.285 OA
ATOM     48 C48  LIG A   1      20.573  25.101  12.064  1.00 20.00    +0.074 C 
ATOM     49 N49  LIG A   1      21.767  25.822  11.571  1.00 20.00    -0.321 NA
ATOM     50 C50  LIG A   1      20.928  23.652  12.434  1.00 20.00    -0.028 C 
ATOM     51 C51  LIG A   1      21.024  22.687  11.247  1.00 20.00    -0.034 C 
ATOM     52 C52  LIG A   1      22.055  23.073  10.185  1.00 20.00    +0.018 C 
ATOM     53 N53  LIG A   1      22.291  21.962   9.271  1.00 20.00    -0.357 NA
ATOM     54 C54  LIG A   1      21.401  21.617   8.313  1.00 20.00    +0.185 C 
ATOM     55 N55  LIG A   1      20.334  22.263   8.019  1.00 20.00    -0.270 NA
ATOM     56 N56  LIG A   1      21.783  20.489   7.679  1.00 20.00    -0.370 NA
ATOM     57 H57  LIG A   1      23.528  18.235   4.322  1.00 20.00    +0.023 H 
ATOM     58 H58  LIG A   1      22.673  16.820   4.916  1.00 20.00    +0.023 H 
ATOM     59 H59  LIG A   1      24.026  17.475   5.851  1.00 20.00    +0.023 H 
ATOM     60 H60  LIG A   1      21.402  18.934   5.287  1.00 20.00    +0.032 H 
ATOM     61 H61  LIG A   1      22.271  17.140   7.591  1.00 20.00    +0.032 H 
ATOM     62 H62  LIG A   1      20.835  17.023   6.597  1.00 20.00    +0.032 H 
ATOM     63 H63  LIG A   1      22.060  18.036   9.761  1.00 20.00    +0.063 H 
ATOM     64 H64  LIG A   1      21.336  19.926  11.129  1.00 20.00    +0.063 H 
ATOM     65 H65  LIG A   1      18.480  21.030   8.086  1.00 20.00    +0.063 H 
ATOM     66 H66  LIG A   1      19.132  19.088   6.766  1.00 20.00    +0.063 H 
ATOM     67 H67  LIG A   1      20.295  24.138   9.523  1.00 20.00    +0.072 H 
ATOM     68 H68  LIG A   1      23.637  23.199   7.319  1.00 20.00    +0.050 H 
ATOM     69 H69  LIG A   1      23.997  21.694   8.154  1.00 20.00    +0.050 H 
ATOM     70 H70  LIG A   1      22.725  24.145   9.496  1.00 20.00    +0.029 H 
ATOM     71 H71  LIG A   1      24.423  23.755   9.505  1.00 20.00    +0.029 H 
ATOM     72 H72  LIG A   1      22.531  21.626  10.486  1.00 20.00    +0.028 H 
ATOM     73 H73  LIG A   1      24.208  21.827  10.792  1.00 20.00    +0.028 H 
ATOM     74 H74  LIG A   1      23.816  23.769  12.172  1.00 20.00    +0.047 H 
ATOM     75 H75  LIG A   1      23.972  21.592  14.667  1.00 20.00    +0.296 HD
ATOM     76 H76  LIG A   1      22.846  25.643  12.825  1.00 20.00    +0.063 H 
ATOM     77 H77  LIG A   1      20.961  27.082  13.252  1.00 20.00    +0.064 H 
ATOM     78 H78  LIG A   1      17.476  25.870  13.106  1.00 20.00    +0.160 HD
ATOM     79 H79  LIG A   1      17.428  28.206  13.486  1.00 20.00    +0.049 H 
ATOM     80 H80  LIG A   1      19.172  28.304  13.415  1.00 20.00    +0.049 H 
ATOM     81 H81  LIG A   1      19.279  26.782  15.473  1.00 20.00    +0.030 H 
ATOM     82 H82  LIG A   1      17.517  26.743  15.493  1.00 20.00    +0.030 H 
ATOM     83 H83  LIG A   1      19.251  29.259  15.770  1.00 20.00    +0.043 H 
ATOM     84 H84  LIG A   1      17.477  29.241  15.750  1.00 20.00    +0.043 H 
ATOM     85 H85  LIG A   1      19.173  27.796  17.679  1.00 20.00    +0.122 HD
ATOM     86 H86  LIG A   1      18.584  30.473  17.712  1.00 20.00    +0.043 H 
ATOM     87 H87  LIG A   1      19.167  29.469  19.015  1.00 20.00    +0.043 H 
ATOM     88 H88  LIG A   1      17.166  30.506  19.805  1.00 20.00    +0.028 H 
ATOM     89 H89  LIG A   1      16.868  28.794  19.639  1.00 20.00    +0.028 H 
ATOM     90 H90  LIG A   1      14.925  30.014  18.876  1.00 20.00    +0.028 H 
ATOM     91 H91  LIG A   1      15.627  29.152  17.521  1.00 20.00    +0.028 H 
ATOM     92 H92  LIG A   1      14.914  31.372  16.815  1.00 20.00    +0.043 H 
ATOM     93 H93  LIG A   1      16.661  31.275  16.676  1.00 20.00    +0.043 H 
ATOM     94 H94  LIG A   1      16.838  32.459  18.750  1.00 20.00    +0.118 HD
ATOM     95 H95  LIG A   1      15.219  32.481  18.935  1.00 20.00    +0.118 HD
ATOM     96 H96  LIG A   1      18.273  23.946  12.083  1.00 20.00    +0.068 H 
ATOM     97 H97  LIG A   1      23.296  19.761   7.541  1.00 20.00    +0.057 H 
ATOM     98 H98  LIG A   1      24.273  21.360   5.926  1.00 20.00    +0.119 HD
ATOM     99 H99  LIG A   1      24.704  19.805   5.656  1.00 20.00    +0.119 HD
ATOM    100 H100 LIG A   1      17.062  26.251  16.357  1.00 20.00    +0.024 H 
ATOM    101 H101 LIG A   1      16.507  25.697  14.774  1.00 20.00    +0.024 H 
ATOM    102 H102 LIG A   1      18.058  25.127  15.429  1.00 20.00    +0.024 H 
ATOM    103 H103 LIG A   1      17.399  28.034  14.681  1.00 20.00    +0.038 H 
ATOM    104 H104 LIG A   1      18.950  27.504  15.318  1.00 20.00    +0.038 H 
ATOM    105 H105 LIG A   1      19.808  25.090  11.277  1.00 20.00    +0.055 H 
ATOM    106 H106 LIG A   1      21.495  26.765  11.291  1.00 20.00    +0.119 HD
ATOM    107 H107 LIG A   1      22.422  25.943  12.349  1.00 20.00    +0.119 HD
ATOM    108 H108 LIG A   1      21.866  23.624  13.005  1.00 20.00    +0.029 H 
ATOM    109 H109 LIG A   1      20.159  23.258  13.114  1.00 20.00    +0.029 H 
ATOM    110 H110 LIG A   1      21.262  21.690  11.644  1.00 20.00    +0.029 H 
ATOM    111 H111 LIG A   1      20.034  22.596  10.782  1.00 20.00    +0.029 H 
ATOM    112 H112 LIG A   1      23.010  23.321  10.664  1.00 20.00    +0.049 H 
ATOM    113 H113 LIG A   1      21.731  23.954   9.619  1.00 20.00    +0.049 H 
ATOM    114 H114 LIG A   1      22.719  21.163   9.722  1.00 20.00    +0.163 HD
ATOM    115 H115 LIG A   1      19.831  21.780   7.274  1.00 20.00    +0.191 HD
ATOM    116 H116 LIG A   1      21.305  20.324   6.804  1.00 20.00    +0.159 HD
ATOM    117 H117 LIG A   1      22.787  20.454   7.544  1.00 20.00    +0.159 HD
ENDROOT
TORSDOF 0
                                                                                                                        
ENDMDL
MODEL 2
REMARK VINA RESULT:   -11.782      3.130     10.462
REMARK INTER + INTRA:         -11.782
REMARK INTER:                 -11.782
REMARK INTRA:                   0.000
REMARK UNBOUND:                 0.000
ROOT
ATOM      1 C1   LIG A   1      22.090  28.297  16.025  1.00 20.00    -0.060 C 
ATOM      2 C2   LIG A   1      21.485  26.981  15.498  1.00 20.00    -0.016 C 
ATOM      3 C3   LIG A   1      20.137  27.361  14.793  1.00 20.00    -0.023 C 
ATOM      4 C4   LIG A   1      19.538  26.250  13.976  1.00 20.00    -0.048 A 
ATOM      5 C5   LIG A   1      19.618  26.300  12.581  1.00 20.00    -0.058 A 
ATOM      6 C6   LIG A   1      19.568  25.118  11.855  1.00 20.00    -0.051 A 
ATOM      7 C7   LIG A   1      19.508  23.900  12.536  1.00 20.00    +0.017 A 
ATOM      8 C8   LIG A   1      19.105  23.889  13.877  1.00 20.00    -0.051 A 
ATOM      9 C9   LIG A   1      19.107  25.078  14.600  1.00 20.00    -0.058 A 
ATOM     10 C10  LIG A   1      20.106  22.688  11.937  1.00 20.00    +0.140 C 
ATOM     11 C11  LIG A   1      21.106  22.013  12.548  1.00 20.00    +0.047 C 
ATOM     12 C12  LIG A   1      22.003  22.489  13.650  1.00 20.00    +0.256 C 
ATOM     13 O13  LIG A   1      22.593  21.647  14.325  1.00 20.00    -0.269 OA
ATOM     14 N14  LIG A   1      22.405  23.815  13.535  1.00 20.00    -0.278 NA
ATOM     15 C15  LIG A   1      23.592  24.053  12.699  1.00 20.00    +0.029 C 
ATOM     16 C16  LIG A   1      23.630  23.370  11.310  1.00 20.00    -0.034 C 
ATOM     17 C17  LIG A   1      22.659  24.014  10.314  1.00 20.00    -0.034 C 
ATOM     18 C18  LIG A   1      22.314  23.175   9.067  1.00 20.00    +0.085 C 
ATOM     19 C19  LIG A   1      21.515  24.048   8.110  1.00 20.00    +0.311 C 
ATOM     20 O20  LIG A   1      20.413  24.542   8.298  1.00 20.00    -0.252 OA
ATOM     21 O21  LIG A   1      22.165  24.277   6.948  1.00 20.00    -0.481 OA
ATOM     22 C22  LIG A   1      21.643  21.813   9.224  1.00 20.00    +0.009 A 
ATOM     23 C23  LIG A   1      22.261  20.727   8.575  1.00 20.00    -0.052 A 
ATOM     24 C24  LIG A   1      21.695  19.442   8.570  1.00 20.00    -0.038 A 
ATOM     25 C25  LIG A   1      20.465  19.188   9.173  1.00 20.00    +0.038 A 
ATOM     26 N26  LIG A   1      19.883  17.926   9.262  1.00 20.00    -0.385 NA
ATOM     27 C27  LIG A   1      20.256  16.827   8.379  1.00 20.00    +0.016 C 
ATOM     28 C28  LIG A   1      19.652  17.007   6.986  1.00 20.00    -0.023 C 
ATOM     29 C29  LIG A   1      20.012  15.827   6.084  1.00 20.00    -0.003 C 
ATOM     30 N30  LIG A   1      19.384  15.998   4.773  1.00 20.00    -0.317 NA
ATOM     31 C31  LIG A   1      19.704  14.908   3.851  1.00 20.00    -0.005 C 
ATOM     32 C32  LIG A   1      18.460  14.082   3.509  1.00 20.00    -0.039 C 
ATOM     33 C33  LIG A   1      17.869  13.271   4.670  1.00 20.00    -0.040 C 
ATOM     34 C34  LIG A   1      18.801  12.216   5.271  1.00 20.00    -0.008 C 
ATOM     35 N35  LIG A   1      19.208  11.196   4.307  1.00 20.00    -0.330 NA
ATOM     36 C36  LIG A   1      19.857  20.252   9.844  1.00 20.00    +0.004 A 
ATOM     37 C37  LIG A   1      20.432  21.537   9.883  1.00 20.00    +0.133 A 
ATOM     38 O38  LIG A   1      19.721  22.466  10.612  1.00 20.00    -0.456 OA
ATOM     39 C39  LIG A   1      22.173  24.592  14.678  1.00 20.00    +0.246 C 
ATOM     40 O40  LIG A   1      21.715  24.108  15.721  1.00 20.00    -0.273 OA
ATOM     41 C41  LIG A   1      22.490  26.138  14.609  1.00 20.00    +0.088 C 
ATOM     42 N42  LIG A   1      23.883  26.309  15.083  1.00 20.00    -0.320 NA
ATOM     43 C43  LIG A   1      18.142  17.689   7.334  1.00 20.00    -0.056 C 
ATOM     44 C44  LIG A   1      19.498  17.044   7.573  1.00 20.00    -0.002 C 
ATOM     45 S45  LIG A   1      20.298  17.706   9.063  1.00 20.00    -0.087 SA
ATOM     46 C46  LIG A   1      20.853  19.268   8.452  1.00 20.00    +0.205 C 
ATOM     47 O47  LIG A   1      20.904  19.515   7.252  1.00 20.00    -0.285 OA
ATOM     48 C48  LIG A   1      21.351  20.241   9.539  1.00 20.00    +0.074 C 
ATOM     49 N49  LIG A   1      22.831  20.243   9.548  1.00 20.00    -0.321 NA
ATOM     50 C50  LIG A   1      20.808  21.649   9.248  1.00 20.00    -0.028 C 
ATOM     51 C51  LIG A   1      20.803  22.602  10.449  1.00 20.00    -0.034 C 
ATOM     52 C52  LIG A   1      22.173  22.845  11.083  1.00 20.00    +0.018 C 
ATOM     53 N53  LIG A   1      22.121  23.978  12.000  1.00 20.00    -0.357 NA
ATOM     54 C54  LIG A   1      21.546  23.888  13.221  1.00 20.00    +0.185 C 
ATOM     55 N55  LIG A   1      21.096  22.814  13.757  1.00 20.00    -0.270 NA
ATOM     56 N56  LIG A   1      21.511  25.091  13.830  1.00 20.00    -0.370 NA
ATOM     57 H57  LIG A   1      22.920  28.109  16.712  1.00 20.00    +0.023 H 
ATOM     58 H58  LIG A   1      21.342  28.871  16.583  1.00 20.00    +0.023 H 
ATOM     59 H59  LIG A   1      22.450  28.925  15.203  1.00 20.00    +0.023 H 
ATOM     60 H60  LIG A   1      21.227  26.387  16.385  1.00 20.00    +0.032 H 
ATOM     61 H61  LIG A   1      20.297  28.236  14.148  1.00 20.00    +0.032 H 
ATOM     62 H62  LIG A   1      19.404  27.679  15.548  1.00 20.00    +0.032 H 
ATOM     63 H63  LIG A   1      19.854  27.228  12.065  1.00 20.00    +0.063 H 
ATOM     64 H64  LIG A   1      19.744  25.151  10.783  1.00 20.00    +0.063 H 
ATOM     65 H65  LIG A   1      18.973  22.952  14.415  1.00 20.00    +0.063 H 
ATOM     66 H66  LIG A   1      18.982  25.034  15.682  1.00 20.00    +0.063 H 
ATOM     67 H67  LIG A   1      21.489  21.085  12.134  1.00 20.00    +0.072 H 
ATOM     68 H68  LIG A   1      24.453  23.695  13.278  1.00 20.00    +0.050 H 
ATOM     69 H69  LIG A   1      23.735  25.126  12.552  1.00 20.00    +0.050 H 
ATOM     70 H70  LIG A   1      23.465  22.293  11.399  1.00 20.00    +0.029 H 
ATOM     71 H71  LIG A   1      24.644  23.477  10.906  1.00 20.00    +0.029 H 
ATOM     72 H72  LIG A   1      21.752  24.316  10.819  1.00 20.00    +0.028 H 
ATOM     73 H73  LIG A   1      23.106  24.961   9.983  1.00 20.00    +0.028 H 
ATOM     74 H74  LIG A   1      23.286  23.004   8.579  1.00 20.00    +0.047 H 
ATOM     75 H75  LIG A   1      21.530  24.818   6.430  1.00 20.00    +0.296 HD
ATOM     76 H76  LIG A   1      23.204  20.862   8.050  1.00 20.00    +0.063 H 
ATOM     77 H77  LIG A   1      22.244  18.652   8.069  1.00 20.00    +0.064 H 
ATOM     78 H78  LIG A   1      18.882  17.970   9.435  1.00 20.00    +0.160 HD
ATOM     79 H79  LIG A   1      19.861  15.904   8.820  1.00 20.00    +0.049 H 
ATOM     80 H80  LIG A   1      21.343  16.693   8.332  1.00 20.00    +0.049 H 
ATOM     81 H81  LIG A   1      20.010  17.941   6.535  1.00 20.00    +0.030 H 
ATOM     82 H82  LIG A   1      18.560  17.094   7.070  1.00 20.00    +0.030 H 
ATOM     83 H83  LIG A   1      21.101  15.768   5.976  1.00 20.00    +0.043 H 
ATOM     84 H84  LIG A   1      19.665  14.899   6.550  1.00 20.00    +0.043 H 
ATOM     85 H85  LIG A   1      19.697  16.881   4.370  1.00 20.00    +0.122 HD
ATOM     86 H86  LIG A   1      20.519  14.271   4.213  1.00 20.00    +0.043 H 
ATOM     87 H87  LIG A   1      20.073  15.353   2.918  1.00 20.00    +0.043 H 
ATOM     88 H88  LIG A   1      18.703  13.411   2.678  1.00 20.00    +0.028 H 
ATOM     89 H89  LIG A   1      17.679  14.753   3.126  1.00 20.00    +0.028 H 
ATOM     90 H90  LIG A   1      16.955  12.773   4.310  1.00 20.00    +0.028 H 
ATOM     91 H91  LIG A   1      17.545  13.949   5.468  1.00 20.00    +0.028 H 
ATOM     92 H92  LIG A   1      18.286  11.715   6.099  1.00 20.00    +0.043 H 
ATOM     93 H93  LIG A   1      19.696  12.679   5.697  1.00 20.00    +0.043 H 
ATOM     94 H94  LIG A   1      19.739  11.622   3.548  1.00 20.00    +0.118 HD
ATOM     95 H95  LIG A   1      18.380  10.783   3.877  1.00 20.00    +0.118 HD
ATOM     96 H96  LIG A   1      18.921  20.091  10.374  1.00 20.00    +0.068 H 
ATOM     97 H97  LIG A   1      22.424  26.484  13.573  1.00 20.00    +0.057 H 
ATOM     98 H98  LIG A   1      24.525  25.684  14.605  1.00 20.00    +0.119 HD
ATOM     99 H99  LIG A   1      24.201  27.260  14.905  1.00 20.00    +0.119 HD
ATOM    100 H100 LIG A   1      17.668  17.241   6.454  1.00 20.00    +0.024 H 
ATOM    101 H101 LIG A   1      17.468  17.537   8.184  1.00 20.00    +0.024 H 
ATOM    102 H102 LIG A   1      18.228  18.765   7.148  1.00 20.00    +0.024 H 
ATOM    103 H103 LIG A   1      19.362  15.967   7.723  1.00 20.00    +0.038 H 
ATOM    104 H104 LIG A   1      20.148  17.162   6.699  1.00 20.00    +0.038 H 
ATOM    105 H105 LIG A   1      20.985  19.916  10.522  1.00 20.00    +0.055 H 
ATOM    106 H106 LIG A   1      23.163  19.308   9.787  1.00 20.00    +0.119 HD
ATOM    107 H107 LIG A   1      23.165  20.420   8.596  1.00 20.00    +0.119 HD
ATOM    108 H108 LIG A   1      21.366  22.108   8.420  1.00 20.00    +0.029 H 
ATOM    109 H109 LIG A   1      19.772  21.566   8.892  1.00 20.00    +0.029 H 
ATOM    110 H110 LIG A   1      20.378  23.559  10.115  1.00 20.00    +0.029 H 
ATOM    111 H111 LIG A   1      20.111  22.214  11.206  1.00 20.00    +0.029 H 
ATOM    112 H112 LIG A   1      22.910  23.079  10.305  1.00 20.00    +0.049 H 
ATOM    113 H113 LIG A   1      22.527  21.955  11.616  1.00 20.00    +0.049 H 
ATOM    114 H114 LIG A   1      21.928  24.855  11.533  1.00 20.00    +0.163 HD
ATOM    115 H115 LIG A   1      20.698  23.025  14.672  1.00 20.00    +0.191 HD
ATOM    116 H116 LIG A   1      21.331  25.047  14.823  1.00 20.00    +0.159 HD
ATOM    117 H117 LIG A   1      22.351  25.631  13.649  1.00 20.00    +0.159 HD
ENDROOT
TORSDOF 0
                                                                                                                        
ENDMDL
MODEL 3
REMARK VINA RESULT:   -11.727      3.518      5.927
REMARK INTER + INTRA:         -11.727
REMARK INTER:                 -11.727
REMARK INTRA:                   0.000
REMARK UNBOUND:                 0.000
ROOT
ATOM      1 C1   LIG A   1      19.424  11.949   3.643  1.00 20.00    -0.060 C 
ATOM      2 C2   LIG A   1      19.296  13.407   4.125  1.00 20.00    -0.016 C 
ATOM      3 C3   LIG A   1      17.884  13.532   4.796  1.00 20.00    -0.023 C 
ATOM      4 C4   LIG A   1      17.686  14.804   5.573  1.00 20.00    -0.048 A 
ATOM      5 C5   LIG A   1      17.713  14.770   6.970  1.00 20.00    -0.058 A 
ATOM      6 C6   LIG A   1      18.056  15.917   7.672  1.00 20.00    -0.051 A 
ATOM      7 C7   LIG A   1      18.432  17.063   6.965  1.00 20.00    +0.017 A 
ATOM      8 C8   LIG A   1      18.087  17.172   5.613  1.00 20.00    -0.051 A 
ATOM      9 C9   LIG A   1      17.697  16.035   4.913  1.00 20.00    -0.058 A 
ATOM     10 C10  LIG A   1      19.397  18.013   7.558  1.00 20.00    +0.140 C 
ATOM     11 C11  LIG A   1      20.581  18.287   6.966  1.00 20.00    +0.047 C 
ATOM     12 C12  LIG A   1      21.284  17.501   5.900  1.00 20.00    +0.256 C 
ATOM     13 O13  LIG A   1      22.141  18.070   5.228  1.00 20.00    -0.269 OA
ATOM     14 N14  LIG A   1      21.204  16.121   6.053  1.00 20.00    -0.278 NA
ATOM     15 C15  LIG A   1      22.218  15.514   6.930  1.00 20.00    +0.029 C 
ATOM     16 C16  LIG A   1      22.458  16.183   8.306  1.00 20.00    -0.034 C 
ATOM     17 C17  LIG A   1      21.303  15.939   9.284  1.00 20.00    -0.034 C 
ATOM     18 C18  LIG A   1      21.240  16.881  10.503  1.00 20.00    +0.085 C 
ATOM     19 C19  LIG A   1      20.169  16.362  11.453  1.00 20.00    +0.311 C 
ATOM     20 O20  LIG A   1      18.969  16.271  11.241  1.00 20.00    -0.252 OA
ATOM     21 O21  LIG A   1      20.675  15.958  12.638  1.00 20.00    -0.481 OA
ATOM     22 C22  LIG A   1      21.081  18.386  10.300  1.00 20.00    +0.009 A 
ATOM     23 C23  LIG A   1      22.020  19.212  10.946  1.00 20.00    -0.052 A 
ATOM     24 C24  LIG A   1      21.929  20.613  10.909  1.00 20.00    -0.038 A 
ATOM     25 C25  LIG A   1      20.874  21.255  10.264  1.00 20.00    +0.038 A 
ATOM     26 N26  LIG A   1      20.764  22.637  10.133  1.00 20.00    -0.385 NA
ATOM     27 C27  LIG A   1      21.472  23.567  11.006  1.00 20.00    +0.016 C 
ATOM     28 C28  LIG A   1      20.812  23.645  12.382  1.00 20.00    -0.023 C 
ATOM     29 C29  LIG A   1      21.535  24.655  13.272  1.00 20.00    -0.003 C 
ATOM     30 N30  LIG A   1      20.859  24.748  14.567  1.00 20.00    -0.317 NA
ATOM     31 C31  LIG A   1      21.513  25.688  15.477  1.00 20.00    -0.005 C 
ATOM     32 C32  LIG A   1      20.620  26.899  15.764  1.00 20.00    -0.039 C 
ATOM     33 C33  LIG A   1      20.369  27.831  14.570  1.00 20.00    -0.040 C 
ATOM     34 C34  LIG A   1      21.620  28.485  13.977  1.00 20.00    -0.008 C 
ATOM     35 N35  LIG A   1      22.331  29.330  14.934  1.00 20.00    -0.330 NA
ATOM     36 C36  LIG A   1      19.953  20.445   9.596  1.00 20.00    +0.004 A 
ATOM     37 C37  LIG A   1      20.052  19.040   9.599  1.00 20.00    +0.133 A 
ATOM     38 O38  LIG A   1      19.082  18.391   8.867  1.00 20.00    -0.456 OA
ATOM     39 C39  LIG A   1      20.744  15.438   4.919  1.00 20.00    +0.246 C 
ATOM     40 O40  LIG A   1      20.503  16.019   3.854  1.00 20.00    -0.273 OA
ATOM     41 C41  LIG A   1      20.510  13.880   5.028  1.00 20.00    +0.088 C 
ATOM     42 N42  LIG A   1      21.770  13.228   4.600  1.00 20.00    -0.320 NA
ATOM     43 C43  LIG A   1      19.167  23.512  12.002  1.00 20.00    -0.056 C 
ATOM     44 C44  LIG A   1      20.668  23.646  11.792  1.00 20.00    -0.002 C 
ATOM     45 S45  LIG A   1      21.224  22.707  10.340  1.00 20.00    -0.087 SA
ATOM     46 C46  LIG A   1      21.196  21.068  10.998  1.00 20.00    +0.205 C 
ATOM     47 O47  LIG A   1      21.133  20.853  12.204  1.00 20.00    -0.285 OA
ATOM     48 C48  LIG A   1      21.353  19.953   9.946  1.00 20.00    +0.074 C 
ATOM     49 N49  LIG A   1      22.742  19.443   9.982  1.00 20.00    -0.321 NA
ATOM     50 C50  LIG A   1      20.354  18.825  10.247  1.00 20.00    -0.028 C 
ATOM     51 C51  LIG A   1      20.048  17.898   9.066  1.00 20.00    -0.034 C 
ATOM     52 C52  LIG A   1      21.265  17.181   8.478  1.00 20.00    +0.018 C 
ATOM     53 N53  LIG A   1      20.847  16.109   7.582  1.00 20.00    -0.357 NA
ATOM     54 C54  LIG A   1      20.365  16.355   6.342  1.00 20.00    +0.185 C 
ATOM     55 N55  LIG A   1      20.323  17.502   5.773  1.00 20.00    -0.270 NA
ATOM     56 N56  LIG A   1      19.933  15.220   5.756  1.00 20.00    -0.370 NA
ATOM     57 H57  LIG A   1      20.283  11.821   2.978  1.00 20.00    +0.023 H 
ATOM     58 H58  LIG A   1      18.537  11.650   3.073  1.00 20.00    +0.023 H 
ATOM     59 H59  LIG A   1      19.529  11.259   4.487  1.00 20.00    +0.023 H 
ATOM     60 H60  LIG A   1      19.277  14.028   3.219  1.00 20.00    +0.032 H 
ATOM     61 H61  LIG A   1      17.720  12.674   5.462  1.00 20.00    +0.032 H 
ATOM     62 H62  LIG A   1      17.104  13.463   4.025  1.00 20.00    +0.032 H 
ATOM     63 H63  LIG A   1      17.605  13.832   7.511  1.00 20.00    +0.063 H 
ATOM     64 H64  LIG A   1      18.186  15.856   8.749  1.00 20.00    +0.063 H 
ATOM     65 H65  LIG A   1      18.296  18.082   5.053  1.00 20.00    +0.063 H 
ATOM     66 H66  LIG A   1      17.618  16.087   3.828  1.00 20.00    +0.063 H 
ATOM     67 H67  LIG A   1      21.249  19.038   7.373  1.00 20.00    +0.072 H 
ATOM     68 H68  LIG A   1      23.163  15.539   6.371  1.00 20.00    +0.050 H 
ATOM     69 H69  LIG A   1      21.981  14.462   7.102  1.00 20.00    +0.050 H 
ATOM     70 H70  LIG A   1      22.675  17.248   8.191  1.00 20.00    +0.029 H 
ATOM     71 H71  LIG A   1      23.365  15.747   8.743  1.00 20.00    +0.029 H 
ATOM     72 H72  LIG A   1      20.359  15.952   8.758  1.00 20.00    +0.028 H 
ATOM     73 H73  LIG A   1      21.391  14.906   9.646  1.00 20.00    +0.028 H 
ATOM     74 H74  LIG A   1      22.201  16.722  11.017  1.00 20.00    +0.047 H 
ATOM     75 H75  LIG A   1      19.883  15.682  13.147  1.00 20.00    +0.296 HD
ATOM     76 H76  LIG A   1      22.847  18.777  11.502  1.00 20.00    +0.063 H 
ATOM     77 H77  LIG A   1      22.705  21.181  11.411  1.00 20.00    +0.064 H 
ATOM     78 H78  LIG A   1      19.812  22.934   9.930  1.00 20.00    +0.160 HD
ATOM     79 H79  LIG A   1      21.427  24.557  10.534  1.00 20.00    +0.049 H 
ATOM     80 H80  LIG A   1      22.537  23.322  11.083  1.00 20.00    +0.049 H 
ATOM     81 H81  LIG A   1      20.818  22.659  12.863  1.00 20.00    +0.030 H 
ATOM     82 H82  LIG A   1      19.759  23.935  12.267  1.00 20.00    +0.030 H 
ATOM     83 H83  LIG A   1      22.576  24.341  13.412  1.00 20.00    +0.043 H 
ATOM     84 H84  LIG A   1      21.538  25.632  12.777  1.00 20.00    +0.043 H 
ATOM     85 H85  LIG A   1      20.840  23.822  14.996  1.00 20.00    +0.122 HD
ATOM     86 H86  LIG A   1      22.505  25.997  15.127  1.00 20.00    +0.043 H 
ATOM     87 H87  LIG A   1      21.686  25.171  16.428  1.00 20.00    +0.043 H 
ATOM     88 H88  LIG A   1      21.061  27.470  16.589  1.00 20.00    +0.028 H 
ATOM     89 H89  LIG A   1      19.649  26.548  16.136  1.00 20.00    +0.028 H 
ATOM     90 H90  LIG A   1      19.674  28.621  14.892  1.00 20.00    +0.028 H 
ATOM     91 H91  LIG A   1      19.850  27.282  13.776  1.00 20.00    +0.028 H 
ATOM     92 H92  LIG A   1      21.326  29.107  13.124  1.00 20.00    +0.043 H 
ATOM     93 H93  LIG A   1      22.311  27.731  13.588  1.00 20.00    +0.043 H 
ATOM     94 H94  LIG A   1      22.667  28.771  15.716  1.00 20.00    +0.118 HD
ATOM     95 H95  LIG A   1      21.686  30.014  15.330  1.00 20.00    +0.118 HD
ATOM     96 H96  LIG A   1      19.141  20.902   9.035  1.00 20.00    +0.068 H 
ATOM     97 H97  LIG A   1      20.306  13.607   6.068  1.00 20.00    +0.057 H 
ATOM     98 H98  LIG A   1      22.576  13.609   5.085  1.00 20.00    +0.119 HD
ATOM     99 H99  LIG A   1      21.737  12.231   4.806  1.00 20.00    +0.119 HD
ATOM    100 H100 LIG A   1      18.857  24.120  12.858  1.00 20.00    +0.024 H 
ATOM    101 H101 LIG A   1      18.605  23.861  11.129  1.00 20.00    +0.024 H 
ATOM    102 H102 LIG A   1      18.875  22.477  12.211  1.00 20.00    +0.024 H 
ATOM    103 H103 LIG A   1      20.912  24.700  11.617  1.00 20.00    +0.038 H 
ATOM    104 H104 LIG A   1      21.218  23.338  12.687  1.00 20.00    +0.038 H 
ATOM    105 H105 LIG A   1      21.143  20.355   8.946  1.00 20.00    +0.055 H 
ATOM    106 H106 LIG A   1      23.380  20.201   9.734  1.00 20.00    +0.119 HD
ATOM    107 H107 LIG A   1      22.974  19.191  10.947  1.00 20.00    +0.119 HD
ATOM    108 H108 LIG A   1      20.702  18.226  11.101  1.00 20.00    +0.029 H 
ATOM    109 H109 LIG A   1      19.401  19.268  10.570  1.00 20.00    +0.029 H 
ATOM    110 H110 LIG A   1      19.313  17.153   9.404  1.00 20.00    +0.029 H 
ATOM    111 H111 LIG A   1      19.548  18.477   8.280  1.00 20.00    +0.029 H 
ATOM    112 H112 LIG A   1      21.860  16.732   9.283  1.00 20.00    +0.049 H 
ATOM    113 H113 LIG A   1      21.915  17.880   7.939  1.00 20.00    +0.049 H 
ATOM    114 H114 LIG A   1      20.355  15.365   8.060  1.00 20.00    +0.163 HD
ATOM    115 H115 LIG A   1      19.897  17.415   4.850  1.00 20.00    +0.191 HD
ATOM    116 H116 LIG A   1      19.801  15.295   4.757  1.00 20.00    +0.159 HD
ATOM    117 H117 LIG A   1      20.532  14.431   5.974  1.00 20.00    +0.159 HD
ENDROOT
TORSDOF 0
                                                                                                                        
ENDMDL
MODEL 4
REMARK VINA RESULT:   -11.639      2.305      3.168
REMARK INTER + INTRA:         -11.639
REMARK INTER:                 -11.639
REMARK INTRA:                   0.000
REMARK UNBOUND:                 0.000
ROOT
ATOM      1 C1   LIG A   1      20.845  13.608   6.172  1.00 20.00    -0.060 C 
ATOM      2 C2   LIG A   1      20.200  14.826   6.862  1.00 20.00    -0.016 C 
ATOM      3 C3   LIG A   1      19.633  14.315   8.231  1.00 20.00    -0.023 C 
ATOM      4 C4   LIG A   1      19.212  15.413   9.168  1.00 20.00    -0.048 A 
ATOM      5 C5   LIG A   1      20.014  15.724  10.269  1.00 20.00    -0.058 A 
ATOM      6 C6   LIG A   1      19.954  16.999  10.815  1.00 20.00    -0.051 A 
ATOM      7 C7   LIG A   1      19.143  17.963  10.211  1.00 20.00    +0.017 A 
ATOM      8 C8   LIG A   1      18.128  17.550   9.339  1.00 20.00    -0.051 A 
ATOM      9 C9   LIG A   1      18.155  16.258   8.824  1.00 20.00    -0.058 A 
ATOM     10 C10  LIG A   1      19.516  19.392  10.281  1.00 20.00    +0.140 C 
ATOM     11 C11  LIG A   1      19.760  20.119   9.168  1.00 20.00    +0.047 C 
ATOM     12 C12  LIG A   1      20.054  19.621   7.785  1.00 20.00    +0.256 C 
ATOM     13 O13  LIG A   1      19.885  20.390   6.841  1.00 20.00    -0.269 OA
ATOM     14 N14  LIG A   1      20.876  18.500   7.738  1.00 20.00    -0.278 NA
ATOM     15 C15  LIG A   1      22.323  18.766   7.765  1.00 20.00    +0.029 C 
ATOM     16 C16  LIG A   1      22.842  19.755   8.837  1.00 20.00    -0.034 C 
ATOM     17 C17  LIG A   1      22.811  19.157  10.248  1.00 20.00    -0.034 C 
ATOM     18 C18  LIG A   1      22.904  20.166  11.411  1.00 20.00    +0.085 C 
ATOM     19 C19  LIG A   1      23.065  19.385  12.709  1.00 20.00    +0.311 C 
ATOM     20 O20  LIG A   1      22.268  18.609  13.213  1.00 20.00    -0.252 OA
ATOM     21 O21  LIG A   1      24.255  19.610  13.307  1.00 20.00    -0.481 OA
ATOM     22 C22  LIG A   1      21.837  21.245  11.575  1.00 20.00    +0.009 A 
ATOM     23 C23  LIG A   1      22.294  22.573  11.683  1.00 20.00    -0.052 A 
ATOM     24 C24  LIG A   1      21.419  23.644  11.924  1.00 20.00    -0.038 A 
ATOM     25 C25  LIG A   1      20.054  23.438  12.113  1.00 20.00    +0.038 A 
ATOM     26 N26  LIG A   1      19.126  24.462  12.287  1.00 20.00    -0.385 NA
ATOM     27 C27  LIG A   1      19.507  25.800  12.726  1.00 20.00    +0.016 C 
ATOM     28 C28  LIG A   1      19.814  25.823  14.224  1.00 20.00    -0.023 C 
ATOM     29 C29  LIG A   1      20.168  27.238  14.681  1.00 20.00    -0.003 C 
ATOM     30 N30  LIG A   1      20.411  27.245  16.124  1.00 20.00    -0.317 NA
ATOM     31 C31  LIG A   1      20.774  28.571  16.626  1.00 20.00    -0.005 C 
ATOM     32 C32  LIG A   1      19.694  29.128  17.559  1.00 20.00    -0.039 C 
ATOM     33 C33  LIG A   1      18.355  29.466  16.890  1.00 20.00    -0.040 C 
ATOM     34 C34  LIG A   1      18.422  30.536  15.797  1.00 20.00    -0.008 C 
ATOM     35 N35  LIG A   1      18.899  31.826  16.289  1.00 20.00    -0.330 NA
ATOM     36 C36  LIG A   1      19.587  22.129  11.978  1.00 20.00    +0.004 A 
ATOM     37 C37  LIG A   1      20.450  21.051  11.705  1.00 20.00    +0.133 A 
ATOM     38 O38  LIG A   1      19.826  19.830  11.573  1.00 20.00    -0.456 OA
ATOM     39 C39  LIG A   1      20.362  17.435   6.985  1.00 20.00    +0.246 C 
ATOM     40 O40  LIG A   1      19.299  17.526   6.358  1.00 20.00    -0.273 OA
ATOM     41 C41  LIG A   1      21.168  16.077   6.963  1.00 20.00    +0.088 C 
ATOM     42 N42  LIG A   1      22.075  16.137   5.793  1.00 20.00    -0.320 NA
ATOM     43 C43  LIG A   1      18.676  24.733  14.843  1.00 20.00    -0.056 C 
ATOM     44 C44  LIG A   1      19.402  25.609  13.833  1.00 20.00    -0.002 C 
ATOM     45 S45  LIG A   1      19.482  24.817  12.200  1.00 20.00    -0.087 SA
ATOM     46 C46  LIG A   1      20.759  23.633  12.488  1.00 20.00    +0.205 C 
ATOM     47 O47  LIG A   1      21.505  23.705  13.460  1.00 20.00    -0.285 OA
ATOM     48 C48  LIG A   1      20.915  22.575  11.378  1.00 20.00    +0.074 C 
ATOM     49 N49  LIG A   1      22.075  22.928  10.530  1.00 20.00    -0.321 NA
ATOM     50 C50  LIG A   1      21.113  21.192  12.019  1.00 20.00    -0.028 C 
ATOM     51 C51  LIG A   1      20.807  20.003  11.100  1.00 20.00    -0.034 C 
ATOM     52 C52  LIG A   1      21.638  19.951   9.816  1.00 20.00    +0.018 C 
ATOM     53 N53  LIG A   1      21.502  18.652   9.170  1.00 20.00    -0.357 NA
ATOM     54 C54  LIG A   1      20.387  18.300   8.489  1.00 20.00    +0.185 C 
ATOM     55 N55  LIG A   1      19.395  19.070   8.235  1.00 20.00    -0.270 NA
ATOM     56 N56  LIG A   1      20.449  17.013   8.089  1.00 20.00    -0.370 NA
ATOM     57 H57  LIG A   1      21.079  13.817   5.124  1.00 20.00    +0.023 H 
ATOM     58 H58  LIG A   1      20.161  12.752   6.178  1.00 20.00    +0.023 H 
ATOM     59 H59  LIG A   1      21.765  13.305   6.683  1.00 20.00    +0.023 H 
ATOM     60 H60  LIG A   1      19.337  15.106   6.241  1.00 20.00    +0.032 H 
ATOM     61 H61  LIG A   1      20.387  13.688   8.726  1.00 20.00    +0.032 H 
ATOM     62 H62  LIG A   1      18.773  13.655   8.049  1.00 20.00    +0.032 H 
ATOM     63 H63  LIG A   1      20.779  15.035  10.620  1.00 20.00    +0.063 H 
ATOM     64 H64  LIG A   1      20.659  17.271  11.597  1.00 20.00    +0.063 H 
ATOM     65 H65  LIG A   1      17.430  18.267   8.911  1.00 20.00    +0.063 H 
ATOM     66 H66  LIG A   1      17.482  16.006   8.005  1.00 20.00    +0.063 H 
ATOM     67 H67  LIG A   1      19.963  21.184   9.228  1.00 20.00    +0.072 H 
ATOM     68 H68  LIG A   1      22.579  19.170   6.777  1.00 20.00    +0.050 H 
ATOM     69 H69  LIG A   1      22.872  17.828   7.875  1.00 20.00    +0.050 H 
ATOM     70 H70  LIG A   1      22.304  20.705   8.786  1.00 20.00    +0.029 H 
ATOM     71 H71  LIG A   1      23.885  19.998   8.599  1.00 20.00    +0.029 H 
ATOM     72 H72  LIG A   1      21.938  18.532  10.370  1.00 20.00    +0.028 H 
ATOM     73 H73  LIG A   1      23.653  18.456  10.328  1.00 20.00    +0.028 H 
ATOM     74 H74  LIG A   1      23.864  20.680  11.247  1.00 20.00    +0.047 H 
ATOM     75 H75  LIG A   1      24.207  19.075  14.128  1.00 20.00    +0.296 HD
ATOM     76 H76  LIG A   1      23.353  22.801  11.587  1.00 20.00    +0.063 H 
ATOM     77 H77  LIG A   1      21.845  24.640  11.971  1.00 20.00    +0.064 H 
ATOM     78 H78  LIG A   1      18.264  24.137  12.717  1.00 20.00    +0.160 HD
ATOM     79 H79  LIG A   1      18.657  26.464  12.528  1.00 20.00    +0.049 H 
ATOM     80 H80  LIG A   1      20.341  26.199  12.138  1.00 20.00    +0.049 H 
ATOM     81 H81  LIG A   1      20.644  25.143  14.452  1.00 20.00    +0.030 H 
ATOM     82 H82  LIG A   1      18.942  25.457  14.782  1.00 20.00    +0.030 H 
ATOM     83 H83  LIG A   1      21.060  27.583  14.146  1.00 20.00    +0.043 H 
ATOM     84 H84  LIG A   1      19.342  27.912  14.434  1.00 20.00    +0.043 H 
ATOM     85 H85  LIG A   1      21.163  26.589  16.335  1.00 20.00    +0.122 HD
ATOM     86 H86  LIG A   1      21.013  29.278  15.824  1.00 20.00    +0.043 H 
ATOM     87 H87  LIG A   1      21.697  28.468  17.210  1.00 20.00    +0.043 H 
ATOM     88 H88  LIG A   1      20.091  30.020  18.058  1.00 20.00    +0.028 H 
ATOM     89 H89  LIG A   1      19.505  28.403  18.362  1.00 20.00    +0.028 H 
ATOM     90 H90  LIG A   1      17.656  29.800  17.671  1.00 20.00    +0.028 H 
ATOM     91 H91  LIG A   1      17.916  28.556  16.464  1.00 20.00    +0.028 H 
ATOM     92 H92  LIG A   1      17.420  30.680  15.378  1.00 20.00    +0.043 H 
ATOM     93 H93  LIG A   1      19.061  30.213  14.970  1.00 20.00    +0.043 H 
ATOM     94 H94  LIG A   1      19.853  31.739  16.637  1.00 20.00    +0.118 HD
ATOM     95 H95  LIG A   1      18.332  32.119  17.085  1.00 20.00    +0.118 HD
ATOM     96 H96  LIG A   1      18.522  21.925  12.066  1.00 20.00    +0.068 H 
ATOM     97 H97  LIG A   1      21.769  15.988   7.873  1.00 20.00    +0.057 H 
ATOM     98 H98  LIG A   1      22.617  16.996   5.779  1.00 20.00    +0.119 HD
ATOM     99 H99  LIG A   1      22.736  15.364   5.822  1.00 20.00    +0.119 HD
ATOM    100 H100 LIG A   1      18.609  25.254  15.804  1.00 20.00    +0.024 H 
ATOM    101 H101 LIG A   1      17.654  24.506  14.518  1.00 20.00    +0.024 H 
ATOM    102 H102 LIG A   1      19.202  23.788  15.017  1.00 20.00    +0.024 H 
ATOM    103 H103 LIG A   1      18.855  26.551  13.716  1.00 20.00    +0.038 H 
ATOM    104 H104 LIG A   1      20.405  25.867  14.187  1.00 20.00    +0.038 H 
ATOM    105 H105 LIG A   1      20.009  22.553  10.759  1.00 20.00    +0.055 H 
ATOM    106 H106 LIG A   1      21.898  23.828  10.082  1.00 20.00    +0.119 HD
ATOM    107 H107 LIG A   1      22.890  23.074  11.132  1.00 20.00    +0.119 HD
ATOM    108 H108 LIG A   1      22.135  21.097  12.411  1.00 20.00    +0.029 H 
ATOM    109 H109 LIG A   1      20.454  21.105  12.894  1.00 20.00    +0.029 H 
ATOM    110 H110 LIG A   1      20.968  19.082  11.678  1.00 20.00    +0.029 H 
ATOM    111 H111 LIG A   1      19.740  20.016  10.846  1.00 20.00    +0.029 H 
ATOM    112 H112 LIG A   1      22.699  20.099  10.051  1.00 20.00    +0.049 H 
ATOM    113 H113 LIG A   1      21.341  20.743   9.119  1.00 20.00    +0.049 H 
ATOM    114 H114 LIG A   1      21.888  17.894   9.719  1.00 20.00    +0.163 HD
ATOM    115 H115 LIG A   1      18.678  18.553   7.725  1.00 20.00    +0.191 HD
ATOM    116 H116 LIG A   1      19.778  16.770   7.374  1.00 20.00    +0.159 HD
ATOM    117 H117 LIG A   1      21.385  16.753   7.796  1.00 20.00    +0.159 HD
ENDROOT
TORSDOF 0
                                                                                                                        
ENDMDL
MODEL 5
REMARK VINA RESULT:   -11.546      5.540     12.167
REMARK INTER + INTRA:         -11.546
REMARK INTER:                 -11.546
REMARK INTRA:                   0.000
REMARK UNBOUND:                 0.000
ROOT
ATOM      1 C1   LIG A   1      23.965  22.510  13.381  1.00 20.00    -0.060 C 
ATOM      2 C2   LIG A   1      22.760  21.764  12.774  1.00 20.00    -0.016 C 
ATOM      3 C3   LIG A   1      22.018  22.792  11.851  1.00 20.00    -0.023 C 
ATOM      4 C4   LIG A   1      20.979  22.173  10.958  1.00 20.00    -0.048 A 
ATOM      5 C5   LIG A   1      21.247  22.014   9.596  1.00 20.00    -0.058 A 
ATOM      6 C6   LIG A   1      20.586  21.023   8.883  1.00 20.00    -0.051 A 
ATOM      7 C7   LIG A   1      19.716  20.162   9.558  1.00 20.00    +0.017 A 
ATOM      8 C8   LIG A   1      19.223  20.539  10.814  1.00 20.00    -0.051 A 
ATOM      9 C9   LIG A   1      19.852  21.563  11.515  1.00 20.00    -0.058 A 
ATOM     10 C10  LIG A   1      19.529  18.776   9.080  1.00 20.00    +0.140 C 
ATOM     11 C11  LIG A   1      19.831  17.710   9.855  1.00 20.00    +0.047 C 
ATOM     12 C12  LIG A   1      20.686  17.676  11.087  1.00 20.00    +0.256 C 
ATOM     13 O13  LIG A   1      20.556  16.728  11.858  1.00 20.00    -0.269 OA
ATOM     14 N14  LIG A   1      21.818  18.481  11.026  1.00 20.00    -0.278 NA
ATOM     15 C15  LIG A   1      23.002  17.874  10.396  1.00 20.00    +0.029 C 
ATOM     16 C16  LIG A   1      22.793  17.156   9.040  1.00 20.00    -0.034 C 
ATOM     17 C17  LIG A   1      22.544  18.139   7.890  1.00 20.00    -0.034 C 
ATOM     18 C18  LIG A   1      21.923  17.539   6.612  1.00 20.00    +0.085 C 
ATOM     19 C19  LIG A   1      21.942  18.606   5.525  1.00 20.00    +0.311 C 
ATOM     20 O20  LIG A   1      21.351  19.675   5.523  1.00 20.00    -0.252 OA
ATOM     21 O21  LIG A   1      22.738  18.276   4.485  1.00 20.00    -0.481 OA
ATOM     22 C22  LIG A   1      20.552  16.870   6.669  1.00 20.00    +0.009 A 
ATOM     23 C23  LIG A   1      20.464  15.567   6.143  1.00 20.00    -0.052 A 
ATOM     24 C24  LIG A   1      19.243  14.879   6.058  1.00 20.00    -0.038 A 
ATOM     25 C25  LIG A   1      18.046  15.474   6.451  1.00 20.00    +0.038 A 
ATOM     26 N26  LIG A   1      16.814  14.824   6.455  1.00 20.00    -0.385 NA
ATOM     27 C27  LIG A   1      16.554  13.630   5.658  1.00 20.00    +0.016 C 
ATOM     28 C28  LIG A   1      16.363  13.982   4.183  1.00 20.00    -0.023 C 
ATOM     29 C29  LIG A   1      16.048  12.730   3.365  1.00 20.00    -0.003 C 
ATOM     30 N30  LIG A   1      15.822  13.096   1.966  1.00 20.00    -0.317 NA
ATOM     31 C31  LIG A   1      15.531  11.937   1.122  1.00 20.00    -0.005 C 
ATOM     32 C32  LIG A   1      14.096  11.983   0.588  1.00 20.00    -0.039 C 
ATOM     33 C33  LIG A   1      12.994  11.814   1.642  1.00 20.00    -0.040 C 
ATOM     34 C34  LIG A   1      13.015  10.484   2.401  1.00 20.00    -0.008 C 
ATOM     35 N35  LIG A   1      12.841   9.325   1.529  1.00 20.00    -0.330 NA
ATOM     36 C36  LIG A   1      18.126  16.756   7.000  1.00 20.00    +0.004 A 
ATOM     37 C37  LIG A   1      19.350  17.443   7.121  1.00 20.00    +0.133 A 
ATOM     38 O38  LIG A   1      19.259  18.684   7.711  1.00 20.00    -0.456 OA
ATOM     39 C39  LIG A   1      21.961  19.363  12.106  1.00 20.00    +0.246 C 
ATOM     40 O40  LIG A   1      21.177  19.362  13.063  1.00 20.00    -0.273 OA
ATOM     41 C41  LIG A   1      23.154  20.397  12.074  1.00 20.00    +0.088 C 
ATOM     42 N42  LIG A   1      24.293  19.757  12.771  1.00 20.00    -0.320 NA
ATOM     43 C43  LIG A   1      15.543  15.461   4.267  1.00 20.00    -0.056 C 
ATOM     44 C44  LIG A   1      16.191  14.167   4.735  1.00 20.00    -0.002 C 
ATOM     45 S45  LIG A   1      17.033  14.381   6.330  1.00 20.00    -0.087 SA
ATOM     46 C46  LIG A   1      18.490  15.229   5.804  1.00 20.00    +0.205 C 
ATOM     47 O47  LIG A   1      18.831  15.264   4.626  1.00 20.00    -0.285 OA
ATOM     48 C48  LIG A   1      19.333  15.826   6.948  1.00 20.00    +0.074 C 
ATOM     49 N49  LIG A   1      20.497  14.949   7.203  1.00 20.00    -0.321 NA
ATOM     50 C50  LIG A   1      19.793  17.239   6.556  1.00 20.00    -0.028 C 
ATOM     51 C51  LIG A   1      20.214  18.131   7.729  1.00 20.00    -0.034 C 
ATOM     52 C52  LIG A   1      21.359  17.580   8.580  1.00 20.00    +0.018 C 
ATOM     53 N53  LIG A   1      21.886  18.613   9.463  1.00 20.00    -0.357 NA
ATOM     54 C54  LIG A   1      21.226  19.016  10.573  1.00 20.00    +0.185 C 
ATOM     55 N55  LIG A   1      20.156  18.486  11.037  1.00 20.00    -0.270 NA
ATOM     56 N56  LIG A   1      21.849  20.061  11.155  1.00 20.00    -0.370 NA
ATOM     57 H57  LIG A   1      24.418  21.941  14.198  1.00 20.00    +0.023 H 
ATOM     58 H58  LIG A   1      23.653  23.472  13.801  1.00 20.00    +0.023 H 
ATOM     59 H59  LIG A   1      24.731  22.706  12.624  1.00 20.00    +0.023 H 
ATOM     60 H60  LIG A   1      22.086  21.540  13.613  1.00 20.00    +0.032 H 
ATOM     61 H61  LIG A   1      22.754  23.323  11.233  1.00 20.00    +0.032 H 
ATOM     62 H62  LIG A   1      21.539  23.562  12.471  1.00 20.00    +0.032 H 
ATOM     63 H63  LIG A   1      22.059  22.557   9.116  1.00 20.00    +0.063 H 
ATOM     64 H64  LIG A   1      20.880  20.828   7.855  1.00 20.00    +0.063 H 
ATOM     65 H65  LIG A   1      18.485  19.930  11.332  1.00 20.00    +0.063 H 
ATOM     66 H66  LIG A   1      19.592  21.720  12.561  1.00 20.00    +0.063 H 
ATOM     67 H67  LIG A   1      19.624  16.699   9.520  1.00 20.00    +0.072 H 
ATOM     68 H68  LIG A   1      23.389  17.139  11.113  1.00 20.00    +0.050 H 
ATOM     69 H69  LIG A   1      23.781  18.628  10.263  1.00 20.00    +0.050 H 
ATOM     70 H70  LIG A   1      22.002  16.406   9.112  1.00 20.00    +0.029 H 
ATOM     71 H71  LIG A   1      23.706  16.594   8.809  1.00 20.00    +0.029 H 
ATOM     72 H72  LIG A   1      21.950  18.973   8.233  1.00 20.00    +0.028 H 
ATOM     73 H73  LIG A   1      23.510  18.591   7.628  1.00 20.00    +0.028 H 
ATOM     74 H74  LIG A   1      22.646  16.772   6.294  1.00 20.00    +0.047 H 
ATOM     75 H75  LIG A   1      22.632  19.027   3.863  1.00 20.00    +0.296 HD
ATOM     76 H76  LIG A   1      21.354  15.057   5.781  1.00 20.00    +0.063 H 
ATOM     77 H77  LIG A   1      19.260  13.869   5.663  1.00 20.00    +0.064 H 
ATOM     78 H78  LIG A   1      16.031  15.473   6.459  1.00 20.00    +0.160 HD
ATOM     79 H79  LIG A   1      15.630  13.178   6.038  1.00 20.00    +0.049 H 
ATOM     80 H80  LIG A   1      17.334  12.873   5.794  1.00 20.00    +0.049 H 
ATOM     81 H81  LIG A   1      17.266  14.464   3.787  1.00 20.00    +0.030 H 
ATOM     82 H82  LIG A   1      15.547  14.710   4.083  1.00 20.00    +0.030 H 
ATOM     83 H83  LIG A   1      16.882  12.023   3.441  1.00 20.00    +0.043 H 
ATOM     84 H84  LIG A   1      15.155  12.248   3.777  1.00 20.00    +0.043 H 
ATOM     85 H85  LIG A   1      16.653  13.570   1.612  1.00 20.00    +0.122 HD
ATOM     86 H86  LIG A   1      15.742  10.985   1.621  1.00 20.00    +0.043 H 
ATOM     87 H87  LIG A   1      16.208  11.971   0.259  1.00 20.00    +0.043 H 
ATOM     88 H88  LIG A   1      13.987  11.213  -0.185  1.00 20.00    +0.028 H 
ATOM     89 H89  LIG A   1      13.936  12.939   0.072  1.00 20.00    +0.028 H 
ATOM     90 H90  LIG A   1      12.021  11.921   1.141  1.00 20.00    +0.028 H 
ATOM     91 H91  LIG A   1      13.049  12.633   2.369  1.00 20.00    +0.028 H 
ATOM     92 H92  LIG A   1      12.203  10.482   3.138  1.00 20.00    +0.043 H 
ATOM     93 H93  LIG A   1      13.945  10.368   2.965  1.00 20.00    +0.043 H 
ATOM     94 H94  LIG A   1      13.611   9.266   0.865  1.00 20.00    +0.118 HD
ATOM     95 H95  LIG A   1      11.993   9.442   0.972  1.00 20.00    +0.118 HD
ATOM     96 H96  LIG A   1      17.225  17.242   7.369  1.00 20.00    +0.068 H 
ATOM     97 H97  LIG A   1      23.441  20.600  11.038  1.00 20.00    +0.057 H 
ATOM     98 H98  LIG A   1      24.480  18.826  12.413  1.00 20.00    +0.119 HD
ATOM     99 H99  LIG A   1      25.140  20.307  12.638  1.00 20.00    +0.119 HD
ATOM    100 H100 LIG A   1      15.011  15.290   3.326  1.00 20.00    +0.024 H 
ATOM    101 H101 LIG A   1      14.814  15.833   4.996  1.00 20.00    +0.024 H 
ATOM    102 H102 LIG A   1      16.285  16.247   4.087  1.00 20.00    +0.024 H 
ATOM    103 H103 LIG A   1      15.414  13.406   4.872  1.00 20.00    +0.038 H 
ATOM    104 H104 LIG A   1      16.883  13.780   3.981  1.00 20.00    +0.038 H 
ATOM    105 H105 LIG A   1      18.724  15.891   7.860  1.00 20.00    +0.055 H 
ATOM    106 H106 LIG A   1      20.163  14.032   7.504  1.00 20.00    +0.119 HD
ATOM    107 H107 LIG A   1      20.986  14.787   6.317  1.00 20.00    +0.119 HD
ATOM    108 H108 LIG A   1      20.614  17.183   5.827  1.00 20.00    +0.029 H 
ATOM    109 H109 LIG A   1      18.973  17.750   6.034  1.00 20.00    +0.029 H 
ATOM    110 H110 LIG A   1      20.500  19.111   7.320  1.00 20.00    +0.029 H 
ATOM    111 H111 LIG A   1      19.340  18.316   8.365  1.00 20.00    +0.029 H 
ATOM    112 H112 LIG A   1      22.178  17.243   7.932  1.00 20.00    +0.049 H 
ATOM    113 H113 LIG A   1      21.032  16.718   9.174  1.00 20.00    +0.049 H 
ATOM    114 H114 LIG A   1      22.324  19.375   8.961  1.00 20.00    +0.163 HD
ATOM    115 H115 LIG A   1      19.854  18.991  11.871  1.00 20.00    +0.191 HD
ATOM    116 H116 LIG A   1      21.555  20.241  12.104  1.00 20.00    +0.159 HD
ATOM    117 H117 LIG A   1      22.858  19.972  11.109  1.00 20.00    +0.159 HD
ENDROOT
TORSDOF 0
                                                                                                                        
ENDMDL
MODEL 6
REMARK VINA RESULT:   -11.385      8.833     14.575
REMARK INTER + INTRA:         -11.385
REMARK INTER:                 -11.385
REMARK INTRA:                   0.000
REMARK UNBOUND:                 0.000
ROOT
ATOM      1 C1   LIG A   1      22.656  16.031  12.348  1.00 20.00    -0.060 C 
ATOM      2 C2   LIG A   1      21.326  16.153  11.579  1.00 20.00    -0.016 C 
ATOM      3 C3   LIG A   1      21.512  17.320  10.548  1.00 20.00    -0.023 C 
ATOM      4 C4   LIG A   1      20.420  17.407   9.518  1.00 20.00    -0.048 A 
ATOM      5 C5   LIG A   1      20.669  16.980   8.211  1.00 20.00    -0.058 A 
ATOM      6 C6   LIG A   1      19.610  16.560   7.419  1.00 20.00    -0.051 A 
ATOM      7 C7   LIG A   1      18.325  16.511   7.967  1.00 20.00    +0.017 A 
ATOM      8 C8   LIG A   1      18.055  17.236   9.134  1.00 20.00    -0.051 A 
ATOM      9 C9   LIG A   1      19.112  17.701   9.910  1.00 20.00    -0.058 A 
ATOM     10 C10  LIG A   1      17.351  15.511   7.480  1.00 20.00    +0.140 C 
ATOM     11 C11  LIG A   1      16.821  14.577   8.300  1.00 20.00    +0.047 C 
ATOM     12 C12  LIG A   1      17.320  14.136   9.643  1.00 20.00    +0.256 C 
ATOM     13 O13  LIG A   1      16.535  13.564  10.396  1.00 20.00    -0.269 OA
ATOM     14 N14  LIG A   1      18.704  14.039   9.741  1.00 20.00    -0.278 NA
ATOM     15 C15  LIG A   1      19.289  12.764   9.296  1.00 20.00    +0.029 C 
ATOM     16 C16  LIG A   1      18.817  12.206   7.931  1.00 20.00    -0.034 C 
ATOM     17 C17  LIG A   1      19.375  13.006   6.748  1.00 20.00    -0.034 C 
ATOM     18 C18  LIG A   1      18.656  12.807   5.398  1.00 20.00    +0.085 C 
ATOM     19 C19  LIG A   1      19.466  13.509   4.317  1.00 20.00    +0.311 C 
ATOM     20 O20  LIG A   1      19.695  14.705   4.218  1.00 20.00    -0.252 OA
ATOM     21 O21  LIG A   1      19.975  12.650   3.407  1.00 20.00    -0.481 OA
ATOM     22 C22  LIG A   1      17.177  13.158   5.261  1.00 20.00    +0.009 A 
ATOM     23 C23  LIG A   1      16.336  12.157   4.739  1.00 20.00    -0.052 A 
ATOM     24 C24  LIG A   1      14.975  12.386   4.483  1.00 20.00    -0.038 A 
ATOM     25 C25  LIG A   1      14.397  13.636   4.692  1.00 20.00    +0.038 A 
ATOM     26 N26  LIG A   1      13.042  13.910   4.522  1.00 20.00    -0.385 NA
ATOM     27 C27  LIG A   1      12.169  13.073   3.706  1.00 20.00    +0.016 C 
ATOM     28 C28  LIG A   1      12.405  13.317   2.216  1.00 20.00    -0.023 C 
ATOM     29 C29  LIG A   1      11.454  12.468   1.372  1.00 20.00    -0.003 C 
ATOM     30 N30  LIG A   1      11.665  12.753  -0.048  1.00 20.00    -0.317 NA
ATOM     31 C31  LIG A   1      10.795  11.958  -0.915  1.00 20.00    -0.005 C 
ATOM     32 C32  LIG A   1       9.785  12.842  -1.654  1.00 20.00    -0.039 C 
ATOM     33 C33  LIG A   1       8.723  13.510  -0.770  1.00 20.00    -0.040 C 
ATOM     34 C34  LIG A   1       7.811  12.548  -0.004  1.00 20.00    -0.008 C 
ATOM     35 N35  LIG A   1       7.034  11.676  -0.882  1.00 20.00    -0.330 NA
ATOM     36 C36  LIG A   1      15.216  14.629   5.235  1.00 20.00    +0.004 A 
ATOM     37 C37  LIG A   1      16.575  14.401   5.527  1.00 20.00    +0.133 A 
ATOM     38 O38  LIG A   1      17.233  15.474   6.087  1.00 20.00    -0.456 OA
ATOM     39 C39  LIG A   1      19.259  14.737  10.822  1.00 20.00    +0.246 C 
ATOM     40 O40  LIG A   1      18.557  15.325  11.655  1.00 20.00    -0.273 OA
ATOM     41 C41  LIG A   1      20.832  14.782  10.955  1.00 20.00    +0.088 C 
ATOM     42 N42  LIG A   1      21.220  13.641  11.817  1.00 20.00    -0.320 NA
ATOM     43 C43  LIG A   1      12.711  14.981   2.167  1.00 20.00    -0.056 C 
ATOM     44 C44  LIG A   1      12.332  13.623   2.736  1.00 20.00    -0.002 C 
ATOM     45 S45  LIG A   1      12.941  13.418   4.434  1.00 20.00    -0.087 SA
ATOM     46 C46  LIG A   1      14.649  13.103   4.119  1.00 20.00    +0.205 C 
ATOM     47 O47  LIG A   1      15.059  12.799   3.003  1.00 20.00    -0.285 OA
ATOM     48 C48  LIG A   1      15.551  13.147   5.368  1.00 20.00    +0.074 C 
ATOM     49 N49  LIG A   1      15.855  11.764   5.798  1.00 20.00    -0.321 NA
ATOM     50 C50  LIG A   1      16.844  13.908   5.035  1.00 20.00    -0.028 C 
ATOM     51 C51  LIG A   1      17.608  14.449   6.248  1.00 20.00    -0.034 C 
ATOM     52 C52  LIG A   1      18.040  13.389   7.262  1.00 20.00    +0.018 C 
ATOM     53 N53  LIG A   1      19.007  13.942   8.204  1.00 20.00    -0.357 NA
ATOM     54 C54  LIG A   1      18.641  14.778   9.202  1.00 20.00    +0.185 C 
ATOM     55 N55  LIG A   1      17.436  15.089   9.510  1.00 20.00    -0.270 NA
ATOM     56 N56  LIG A   1      19.719  15.251   9.859  1.00 20.00    -0.370 NA
ATOM     57 H57  LIG A   1      22.553  15.389  13.228  1.00 20.00    +0.023 H 
ATOM     58 H58  LIG A   1      22.986  17.011  12.709  1.00 20.00    +0.023 H 
ATOM     59 H59  LIG A   1      23.448  15.625  11.709  1.00 20.00    +0.023 H 
ATOM     60 H60  LIG A   1      20.580  16.488  12.312  1.00 20.00    +0.032 H 
ATOM     61 H61  LIG A   1      22.479  17.205  10.039  1.00 20.00    +0.032 H 
ATOM     62 H62  LIG A   1      21.571  18.277  11.085  1.00 20.00    +0.032 H 
ATOM     63 H63  LIG A   1      21.686  16.840   7.850  1.00 20.00    +0.063 H 
ATOM     64 H64  LIG A   1      19.820  16.123   6.446  1.00 20.00    +0.063 H 
ATOM     65 H65  LIG A   1      17.048  17.282   9.545  1.00 20.00    +0.063 H 
ATOM     66 H66  LIG A   1      18.901  18.090  10.905  1.00 20.00    +0.063 H 
ATOM     67 H67  LIG A   1      16.054  13.894   7.948  1.00 20.00    +0.072 H 
ATOM     68 H68  LIG A   1      19.040  12.025  10.069  1.00 20.00    +0.050 H 
ATOM     69 H69  LIG A   1      20.378  12.842   9.271  1.00 20.00    +0.050 H 
ATOM     70 H70  LIG A   1      17.728  12.132   7.893  1.00 20.00    +0.029 H 
ATOM     71 H71  LIG A   1      19.182  11.176   7.840  1.00 20.00    +0.029 H 
ATOM     72 H72  LIG A   1      19.416  14.057   6.993  1.00 20.00    +0.028 H 
ATOM     73 H73  LIG A   1      20.429  12.721   6.625  1.00 20.00    +0.028 H 
ATOM     74 H74  LIG A   1      18.754  11.729   5.196  1.00 20.00    +0.047 H 
ATOM     75 H75  LIG A   1      20.439  13.234   2.769  1.00 20.00    +0.296 HD
ATOM     76 H76  LIG A   1      16.730  11.167   4.515  1.00 20.00    +0.063 H 
ATOM     77 H77  LIG A   1      14.388  11.556   4.104  1.00 20.00    +0.064 H 
ATOM     78 H78  LIG A   1      12.857  14.903   4.406  1.00 20.00    +0.160 HD
ATOM     79 H79  LIG A   1      11.135  13.343   3.951  1.00 20.00    +0.049 H 
ATOM     80 H80  LIG A   1      12.268  12.012   3.962  1.00 20.00    +0.049 H 
ATOM     81 H81  LIG A   1      13.443  13.081   1.952  1.00 20.00    +0.030 H 
ATOM     82 H82  LIG A   1      12.255  14.382   1.992  1.00 20.00    +0.030 H 
ATOM     83 H83  LIG A   1      11.633  11.406   1.575  1.00 20.00    +0.043 H 
ATOM     84 H84  LIG A   1      10.422  12.699   1.654  1.00 20.00    +0.043 H 
ATOM     85 H85  LIG A   1      12.639  12.561  -0.281  1.00 20.00    +0.122 HD
ATOM     86 H86  LIG A   1      10.296  11.141  -0.382  1.00 20.00    +0.043 H 
ATOM     87 H87  LIG A   1      11.426  11.473  -1.670  1.00 20.00    +0.043 H 
ATOM     88 H88  LIG A   1       9.294  12.240  -2.427  1.00 20.00    +0.028 H 
ATOM     89 H89  LIG A   1      10.326  13.629  -2.195  1.00 20.00    +0.028 H 
ATOM     90 H90  LIG A   1       8.102  14.155  -1.408  1.00 20.00    +0.028 H 
ATOM     91 H91  LIG A   1       9.209  14.180  -0.050  1.00 20.00    +0.028 H 
ATOM     92 H92  LIG A   1       7.111  13.130   0.606  1.00 20.00    +0.043 H 
ATOM     93 H93  LIG A   1       8.388  11.929   0.691  1.00 20.00    +0.043 H 
ATOM     94 H94  LIG A   1       7.655  11.080  -1.426  1.00 20.00    +0.118 HD
ATOM     95 H95  LIG A   1       6.521  12.243  -1.557  1.00 20.00    +0.118 HD
ATOM     96 H96  LIG A   1      14.798  15.607   5.464  1.00 20.00    +0.068 H 
ATOM     97 H97  LIG A   1      21.291  14.654   9.971  1.00 20.00    +0.057 H 
ATOM     98 H98  LIG A   1      20.808  12.769  11.499  1.00 20.00    +0.119 HD
ATOM     99 H99  LIG A   1      22.231  13.519  11.804  1.00 20.00    +0.119 HD
ATOM    100 H100 LIG A   1      12.297  15.090   1.159  1.00 20.00    +0.024 H 
ATOM    101 H101 LIG A   1      12.313  15.800   2.777  1.00 20.00    +0.024 H 
ATOM    102 H102 LIG A   1      13.797  15.103   2.090  1.00 20.00    +0.024 H 
ATOM    103 H103 LIG A   1      11.240  13.539   2.764  1.00 20.00    +0.038 H 
ATOM    104 H104 LIG A   1      12.695  12.814   2.094  1.00 20.00    +0.038 H 
ATOM    105 H105 LIG A   1      15.030  13.671   6.181  1.00 20.00    +0.055 H 
ATOM    106 H106 LIG A   1      14.984  11.297   6.055  1.00 20.00    +0.119 HD
ATOM    107 H107 LIG A   1      16.220  11.244   4.995  1.00 20.00    +0.119 HD
ATOM    108 H108 LIG A   1      17.513  13.276   4.434  1.00 20.00    +0.029 H 
ATOM    109 H109 LIG A   1      16.599  14.767   4.394  1.00 20.00    +0.029 H 
ATOM    110 H110 LIG A   1      18.494  14.984   5.877  1.00 20.00    +0.029 H 
ATOM    111 H111 LIG A   1      16.990  15.205   6.749  1.00 20.00    +0.029 H 
ATOM    112 H112 LIG A   1      18.521  12.549   6.744  1.00 20.00    +0.049 H 
ATOM    113 H113 LIG A   1      17.179  12.989   7.810  1.00 20.00    +0.049 H 
ATOM    114 H114 LIG A   1      19.880  14.205   7.765  1.00 20.00    +0.163 HD
ATOM    115 H115 LIG A   1      17.438  15.751  10.286  1.00 20.00    +0.191 HD
ATOM    116 H116 LIG A   1      19.508  15.669  10.754  1.00 20.00    +0.159 HD
ATOM    117 H117 LIG A   1      20.438  14.543   9.962  1.00 20.00    +0.159 HD
ENDROOT
TORSDOF 0
                                                                                                                        
ENDMDL
MODEL 7
REMARK VINA RESULT:   -11.328      2.708      4.112
REMARK INTER + INTRA:         -11.328
REMARK INTER:                 -11.328
REMARK INTRA:                   0.000
REMARK UNBOUND:                 0.000
ROOT
ATOM      1 C1   LIG A   1      21.946  13.405   6.086  1.00 20.00    -0.060 C 
ATOM      2 C2   LIG A   1      21.617  14.265   7.323  1.00 20.00    -0.016 C 
ATOM      3 C3   LIG A   1      22.908  14.278   8.213  1.00 20.00    -0.023 C 
ATOM      4 C4   LIG A   1      22.875  15.289   9.325  1.00 20.00    -0.048 A 
ATOM      5 C5   LIG A   1      23.631  16.459   9.215  1.00 20.00    -0.058 A 
ATOM      6 C6   LIG A   1      23.238  17.592   9.915  1.00 20.00    -0.051 A 
ATOM      7 C7   LIG A   1      22.057  17.558  10.660  1.00 20.00    +0.017 A 
ATOM      8 C8   LIG A   1      21.510  16.318  11.014  1.00 20.00    -0.051 A 
ATOM      9 C9   LIG A   1      21.933  15.171  10.350  1.00 20.00    -0.058 A 
ATOM     10 C10  LIG A   1      21.263  18.791  10.844  1.00 20.00    +0.140 C 
ATOM     11 C11  LIG A   1      19.987  18.887  10.407  1.00 20.00    +0.047 C 
ATOM     12 C12  LIG A   1      19.284  18.015   9.410  1.00 20.00    +0.256 C 
ATOM     13 O13  LIG A   1      18.055  18.011   9.406  1.00 20.00    -0.269 OA
ATOM     14 N14  LIG A   1      20.068  17.629   8.328  1.00 20.00    -0.278 NA
ATOM     15 C15  LIG A   1      20.120  18.577   7.204  1.00 20.00    +0.029 C 
ATOM     16 C16  LIG A   1      20.390  20.063   7.544  1.00 20.00    -0.034 C 
ATOM     17 C17  LIG A   1      21.841  20.313   7.970  1.00 20.00    -0.034 C 
ATOM     18 C18  LIG A   1      22.108  21.637   8.714  1.00 20.00    +0.085 C 
ATOM     19 C19  LIG A   1      23.614  21.802   8.870  1.00 20.00    +0.311 C 
ATOM     20 O20  LIG A   1      24.378  21.088   9.503  1.00 20.00    -0.252 OA
ATOM     21 O21  LIG A   1      24.094  22.866   8.192  1.00 20.00    -0.481 OA
ATOM     22 C22  LIG A   1      21.406  21.925  10.039  1.00 20.00    +0.009 A 
ATOM     23 C23  LIG A   1      20.717  23.149  10.135  1.00 20.00    -0.052 A 
ATOM     24 C24  LIG A   1      20.106  23.569  11.327  1.00 20.00    -0.038 A 
ATOM     25 C25  LIG A   1      20.191  22.810  12.492  1.00 20.00    +0.038 A 
ATOM     26 N26  LIG A   1      19.551  23.136  13.686  1.00 20.00    -0.385 NA
ATOM     27 C27  LIG A   1      19.098  24.489  13.988  1.00 20.00    +0.016 C 
ATOM     28 C28  LIG A   1      20.270  25.392  14.370  1.00 20.00    -0.023 C 
ATOM     29 C29  LIG A   1      19.778  26.794  14.728  1.00 20.00    -0.003 C 
ATOM     30 N30  LIG A   1      20.911  27.627  15.136  1.00 20.00    -0.317 NA
ATOM     31 C31  LIG A   1      20.510  28.992  15.476  1.00 20.00    -0.005 C 
ATOM     32 C32  LIG A   1      20.724  29.280  16.966  1.00 20.00    -0.039 C 
ATOM     33 C33  LIG A   1      19.814  28.500  17.925  1.00 20.00    -0.040 C 
ATOM     34 C34  LIG A   1      18.315  28.757  17.757  1.00 20.00    -0.008 C 
ATOM     35 N35  LIG A   1      17.944  30.152  17.986  1.00 20.00    -0.330 NA
ATOM     36 C36  LIG A   1      20.848  21.581  12.400  1.00 20.00    +0.004 A 
ATOM     37 C37  LIG A   1      21.436  21.135  11.201  1.00 20.00    +0.133 A 
ATOM     38 O38  LIG A   1      22.017  19.888  11.272  1.00 20.00    -0.456 OA
ATOM     39 C39  LIG A   1      20.091  16.246   8.094  1.00 20.00    +0.246 C 
ATOM     40 O40  LIG A   1      19.408  15.456   8.757  1.00 20.00    -0.273 OA
ATOM     41 C41  LIG A   1      21.040  15.696   6.958  1.00 20.00    +0.088 C 
ATOM     42 N42  LIG A   1      20.234  15.639   5.717  1.00 20.00    -0.320 NA
ATOM     43 C43  LIG A   1      21.272  24.337  15.235  1.00 20.00    -0.056 C 
ATOM     44 C44  LIG A   1      20.049  24.838  14.482  1.00 20.00    -0.002 C 
ATOM     45 S45  LIG A   1      19.310  23.527  13.465  1.00 20.00    -0.087 SA
ATOM     46 C46  LIG A   1      20.453  23.494  12.119  1.00 20.00    +0.205 C 
ATOM     47 O47  LIG A   1      21.253  24.403  11.923  1.00 20.00    -0.285 OA
ATOM     48 C48  LIG A   1      20.291  22.290  11.171  1.00 20.00    +0.074 C 
ATOM     49 N49  LIG A   1      19.581  22.725   9.948  1.00 20.00    -0.321 NA
ATOM     50 C50  LIG A   1      21.679  21.729  10.820  1.00 20.00    -0.028 C 
ATOM     51 C51  LIG A   1      21.682  20.287  10.301  1.00 20.00    -0.034 C 
ATOM     52 C52  LIG A   1      20.849  20.055   9.039  1.00 20.00    +0.018 C 
ATOM     53 N53  LIG A   1      21.153  18.756   8.454  1.00 20.00    -0.357 NA
ATOM     54 C54  LIG A   1      20.700  17.600   8.992  1.00 20.00    +0.185 C 
ATOM     55 N55  LIG A   1      19.884  17.506   9.976  1.00 20.00    -0.270 NA
ATOM     56 N56  LIG A   1      21.213  16.531   8.349  1.00 20.00    -0.370 NA
ATOM     57 H57  LIG A   1      21.045  13.164   5.515  1.00 20.00    +0.023 H 
ATOM     58 H58  LIG A   1      22.394  12.452   6.386  1.00 20.00    +0.023 H 
ATOM     59 H59  LIG A   1      22.654  13.916   5.425  1.00 20.00    +0.023 H 
ATOM     60 H60  LIG A   1      20.847  13.715   7.881  1.00 20.00    +0.032 H 
ATOM     61 H61  LIG A   1      23.785  14.468   7.579  1.00 20.00    +0.032 H 
ATOM     62 H62  LIG A   1      23.064  13.280   8.646  1.00 20.00    +0.032 H 
ATOM     63 H63  LIG A   1      24.439  16.540   8.491  1.00 20.00    +0.063 H 
ATOM     64 H64  LIG A   1      23.762  18.528   9.739  1.00 20.00    +0.063 H 
ATOM     65 H65  LIG A   1      20.635  16.254  11.658  1.00 20.00    +0.063 H 
ATOM     66 H66  LIG A   1      21.373  14.247  10.489  1.00 20.00    +0.063 H 
ATOM     67 H67  LIG A   1      19.392  19.772  10.610  1.00 20.00    +0.072 H 
ATOM     68 H68  LIG A   1      19.146  18.514   6.703  1.00 20.00    +0.050 H 
ATOM     69 H69  LIG A   1      20.871  18.254   6.479  1.00 20.00    +0.050 H 
ATOM     70 H70  LIG A   1      19.678  20.430   8.288  1.00 20.00    +0.029 H 
ATOM     71 H71  LIG A   1      20.199  20.658   6.642  1.00 20.00    +0.029 H 
ATOM     72 H72  LIG A   1      22.207  19.481   8.554  1.00 20.00    +0.028 H 
ATOM     73 H73  LIG A   1      22.459  20.293   7.063  1.00 20.00    +0.028 H 
ATOM     74 H74  LIG A   1      21.792  22.416   8.003  1.00 20.00    +0.047 H 
ATOM     75 H75  LIG A   1      25.052  22.864   8.404  1.00 20.00    +0.296 HD
ATOM     76 H76  LIG A   1      20.645  23.811   9.274  1.00 20.00    +0.063 H 
ATOM     77 H77  LIG A   1      19.573  24.513  11.314  1.00 20.00    +0.064 H 
ATOM     78 H78  LIG A   1      19.965  22.670  14.489  1.00 20.00    +0.160 HD
ATOM     79 H79  LIG A   1      18.410  24.420  14.841  1.00 20.00    +0.049 H 
ATOM     80 H80  LIG A   1      18.512  24.915  13.166  1.00 20.00    +0.049 H 
ATOM     81 H81  LIG A   1      20.988  25.453  13.542  1.00 20.00    +0.030 H 
ATOM     82 H82  LIG A   1      20.807  24.955  15.223  1.00 20.00    +0.030 H 
ATOM     83 H83  LIG A   1      19.275  27.238  13.862  1.00 20.00    +0.043 H 
ATOM     84 H84  LIG A   1      19.051  26.722  15.544  1.00 20.00    +0.043 H 
ATOM     85 H85  LIG A   1      21.589  27.656  14.374  1.00 20.00    +0.122 HD
ATOM     86 H86  LIG A   1      19.485  29.223  15.167  1.00 20.00    +0.043 H 
ATOM     87 H87  LIG A   1      21.149  29.681  14.910  1.00 20.00    +0.043 H 
ATOM     88 H88  LIG A   1      20.598  30.356  17.134  1.00 20.00    +0.028 H 
ATOM     89 H89  LIG A   1      21.768  29.062  17.227  1.00 20.00    +0.028 H 
ATOM     90 H90  LIG A   1      20.105  28.754  18.955  1.00 20.00    +0.028 H 
ATOM     91 H91  LIG A   1      20.001  27.425  17.818  1.00 20.00    +0.028 H 
ATOM     92 H92  LIG A   1      17.764  28.136  18.474  1.00 20.00    +0.043 H 
ATOM     93 H93  LIG A   1      17.973  28.457  16.762  1.00 20.00    +0.043 H 
ATOM     94 H94  LIG A   1      18.397  30.753  17.299  1.00 20.00    +0.118 HD
ATOM     95 H95  LIG A   1      18.290  30.451  18.898  1.00 20.00    +0.118 HD
ATOM     96 H96  LIG A   1      20.895  20.929  13.270  1.00 20.00    +0.068 H 
ATOM     97 H97  LIG A   1      21.875  16.387   6.806  1.00 20.00    +0.057 H 
ATOM     98 H98  LIG A   1      19.757  16.516   5.535  1.00 20.00    +0.119 HD
ATOM     99 H99  LIG A   1      20.833  15.450   4.917  1.00 20.00    +0.119 HD
ATOM    100 H100 LIG A   1      21.670  25.136  15.869  1.00 20.00    +0.024 H 
ATOM    101 H101 LIG A   1      21.026  23.491  15.887  1.00 20.00    +0.024 H 
ATOM    102 H102 LIG A   1      22.073  24.028  14.554  1.00 20.00    +0.024 H 
ATOM    103 H103 LIG A   1      19.292  25.161  15.205  1.00 20.00    +0.038 H 
ATOM    104 H104 LIG A   1      20.297  25.711  13.870  1.00 20.00    +0.038 H 
ATOM    105 H105 LIG A   1      19.707  21.504  11.667  1.00 20.00    +0.055 H 
ATOM    106 H106 LIG A   1      18.647  23.050  10.204  1.00 20.00    +0.119 HD
ATOM    107 H107 LIG A   1      20.062  23.543   9.562  1.00 20.00    +0.119 HD
ATOM    108 H108 LIG A   1      22.180  22.381  10.091  1.00 20.00    +0.029 H 
ATOM    109 H109 LIG A   1      22.312  21.753  11.719  1.00 20.00    +0.029 H 
ATOM    110 H110 LIG A   1      22.727  20.003  10.107  1.00 20.00    +0.029 H 
ATOM    111 H111 LIG A   1      21.333  19.621  11.099  1.00 20.00    +0.029 H 
ATOM    112 H112 LIG A   1      21.081  20.823   8.290  1.00 20.00    +0.049 H 
ATOM    113 H113 LIG A   1      19.776  20.121   9.255  1.00 20.00    +0.049 H 
ATOM    114 H114 LIG A   1      22.104  18.689   8.112  1.00 20.00    +0.163 HD
ATOM    115 H115 LIG A   1      19.721  16.523  10.196  1.00 20.00    +0.191 HD
ATOM    116 H116 LIG A   1      20.727  15.665   8.534  1.00 20.00    +0.159 HD
ATOM    117 H117 LIG A   1      21.282  16.690   7.349  1.00 20.00    +0.159 HD
ENDROOT
TORSDOF 0
                                                                                                                        
ENDMDL
MODEL 8
REMARK VINA RESULT:   -11.263      7.423     13.543
REMARK INTER + INTRA:         -11.263
REMARK INTER:                 -11.263
REMARK INTRA:                   0.000
REMARK UNBOUND:                 0.000
ROOT
ATOM      1 C1   LIG A   1      24.334  20.278   9.991  1.00 20.00    -0.060 C 
ATOM      2 C2   LIG A   1      22.971  20.014   9.321  1.00 20.00    -0.016 C 
ATOM      3 C3   LIG A   1      23.065  20.605   7.872  1.00 20.00    -0.023 C 
ATOM      4 C4   LIG A   1      21.932  20.200   6.971  1.00 20.00    -0.048 A 
ATOM      5 C5   LIG A   1      22.149  19.242   5.977  1.00 20.00    -0.058 A 
ATOM      6 C6   LIG A   1      21.079  18.489   5.512  1.00 20.00    -0.051 A 
ATOM      7 C7   LIG A   1      19.821  18.659   6.094  1.00 20.00    +0.017 A 
ATOM      8 C8   LIG A   1      19.563  19.822   6.832  1.00 20.00    -0.051 A 
ATOM      9 C9   LIG A   1      20.628  20.607   7.263  1.00 20.00    -0.058 A 
ATOM     10 C10  LIG A   1      18.875  17.525   6.154  1.00 20.00    +0.140 C 
ATOM     11 C11  LIG A   1      18.418  17.041   7.331  1.00 20.00    +0.047 C 
ATOM     12 C12  LIG A   1      18.988  17.255   8.701  1.00 20.00    +0.256 C 
ATOM     13 O13  LIG A   1      18.259  17.060   9.671  1.00 20.00    -0.269 OA
ATOM     14 N14  LIG A   1      20.378  17.243   8.756  1.00 20.00    -0.278 NA
ATOM     15 C15  LIG A   1      21.002  15.918   8.891  1.00 20.00    +0.029 C 
ATOM     16 C16  LIG A   1      20.504  14.800   7.942  1.00 20.00    -0.034 C 
ATOM     17 C17  LIG A   1      20.979  15.003   6.499  1.00 20.00    -0.034 C 
ATOM     18 C18  LIG A   1      20.219  14.208   5.419  1.00 20.00    +0.085 C 
ATOM     19 C19  LIG A   1      20.954  14.374   4.096  1.00 20.00    +0.311 C 
ATOM     20 O20  LIG A   1      21.125  15.406   3.465  1.00 20.00    -0.252 OA
ATOM     21 O21  LIG A   1      21.465  13.212   3.635  1.00 20.00    -0.481 OA
ATOM     22 C22  LIG A   1      18.721  14.427   5.220  1.00 20.00    +0.009 A 
ATOM     23 C23  LIG A   1      17.906  13.279   5.244  1.00 20.00    -0.052 A 
ATOM     24 C24  LIG A   1      16.527  13.339   4.987  1.00 20.00    -0.038 A 
ATOM     25 C25  LIG A   1      15.903  14.538   4.650  1.00 20.00    +0.038 A 
ATOM     26 N26  LIG A   1      14.531  14.676   4.452  1.00 20.00    -0.385 NA
ATOM     27 C27  LIG A   1      13.666  13.544   4.140  1.00 20.00    +0.016 C 
ATOM     28 C28  LIG A   1      13.833  13.105   2.685  1.00 20.00    -0.023 C 
ATOM     29 C29  LIG A   1      12.889  11.948   2.358  1.00 20.00    -0.003 C 
ATOM     30 N30  LIG A   1      13.032  11.576   0.949  1.00 20.00    -0.317 NA
ATOM     31 C31  LIG A   1      12.166  10.458   0.573  1.00 20.00    -0.005 C 
ATOM     32 C32  LIG A   1      11.090  10.898  -0.425  1.00 20.00    -0.039 C 
ATOM     33 C33  LIG A   1      10.034  11.865   0.128  1.00 20.00    -0.040 C 
ATOM     34 C34  LIG A   1       9.196  11.323   1.289  1.00 20.00    -0.008 C 
ATOM     35 N35  LIG A   1       8.425  10.134   0.932  1.00 20.00    -0.330 NA
ATOM     36 C36  LIG A   1      16.696  15.687   4.653  1.00 20.00    +0.004 A 
ATOM     37 C37  LIG A   1      18.074  15.644   4.941  1.00 20.00    +0.133 A 
ATOM     38 O38  LIG A   1      18.705  16.869   4.930  1.00 20.00    -0.456 OA
ATOM     39 C39  LIG A   1      20.942  18.362   9.384  1.00 20.00    +0.246 C 
ATOM     40 O40  LIG A   1      20.247  19.243   9.907  1.00 20.00    -0.273 OA
ATOM     41 C41  LIG A   1      22.515  18.498   9.398  1.00 20.00    +0.088 C 
ATOM     42 N42  LIG A   1      22.987  17.869  10.653  1.00 20.00    -0.320 NA
ATOM     43 C43  LIG A   1      14.062  14.580   1.887  1.00 20.00    -0.056 C 
ATOM     44 C44  LIG A   1      13.766  13.608   3.018  1.00 20.00    -0.002 C 
ATOM     45 S45  LIG A   1      14.448  14.194   4.596  1.00 20.00    -0.087 SA
ATOM     46 C46  LIG A   1      16.156  13.811   4.360  1.00 20.00    +0.205 C 
ATOM     47 O47  LIG A   1      16.535  13.052   3.475  1.00 20.00    -0.285 OA
ATOM     48 C48  LIG A   1      17.102  14.428   5.410  1.00 20.00    +0.074 C 
ATOM     49 N49  LIG A   1      17.484  13.387   6.390  1.00 20.00    -0.321 NA
ATOM     50 C50  LIG A   1      18.346  14.990   4.704  1.00 20.00    -0.028 C 
ATOM     51 C51  LIG A   1      19.131  16.032   5.509  1.00 20.00    -0.034 C 
ATOM     52 C52  LIG A   1      19.649  15.544   6.862  1.00 20.00    +0.018 C 
ATOM     53 N53  LIG A   1      20.625  16.480   7.407  1.00 20.00    -0.357 NA
ATOM     54 C54  LIG A   1      20.261  17.664   7.949  1.00 20.00    +0.185 C 
ATOM     55 N55  LIG A   1      19.056  18.052   8.153  1.00 20.00    -0.270 NA
ATOM     56 N56  LIG A   1      21.341  18.405   8.269  1.00 20.00    -0.370 NA
ATOM     57 H57  LIG A   1      24.294  20.092  11.068  1.00 20.00    +0.023 H 
ATOM     58 H58  LIG A   1      24.633  21.324   9.862  1.00 20.00    +0.023 H 
ATOM     59 H59  LIG A   1      25.118  19.648   9.556  1.00 20.00    +0.023 H 
ATOM     60 H60  LIG A   1      22.239  20.623   9.869  1.00 20.00    +0.032 H 
ATOM     61 H61  LIG A   1      24.016  20.298   7.415  1.00 20.00    +0.032 H 
ATOM     62 H62  LIG A   1      23.101  21.702   7.924  1.00 20.00    +0.032 H 
ATOM     63 H63  LIG A   1      23.156  18.980   5.661  1.00 20.00    +0.063 H 
ATOM     64 H64  LIG A   1      21.272  17.670   4.824  1.00 20.00    +0.063 H 
ATOM     65 H65  LIG A   1      18.572  20.022   7.234  1.00 20.00    +0.063 H 
ATOM     66 H66  LIG A   1      20.438  21.393   7.992  1.00 20.00    +0.063 H 
ATOM     67 H67  LIG A   1      17.670  16.255   7.360  1.00 20.00    +0.072 H 
ATOM     68 H68  LIG A   1      20.817  15.594   9.923  1.00 20.00    +0.050 H 
ATOM     69 H69  LIG A   1      22.085  16.002   8.775  1.00 20.00    +0.050 H 
ATOM     70 H70  LIG A   1      19.418  14.692   8.000  1.00 20.00    +0.029 H 
ATOM     71 H71  LIG A   1      20.910  13.846   8.298  1.00 20.00    +0.029 H 
ATOM     72 H72  LIG A   1      20.982  16.054   6.250  1.00 20.00    +0.028 H 
ATOM     73 H73  LIG A   1      22.039  14.718   6.458  1.00 20.00    +0.028 H 
ATOM     74 H74  LIG A   1      20.357  13.155   5.710  1.00 20.00    +0.047 H 
ATOM     75 H75  LIG A   1      21.877  13.462   2.780  1.00 20.00    +0.296 HD
ATOM     76 H76  LIG A   1      18.335  12.303   5.460  1.00 20.00    +0.063 H 
ATOM     77 H77  LIG A   1      15.964  12.414   5.047  1.00 20.00    +0.064 H 
ATOM     78 H78  LIG A   1      14.297  15.509   3.918  1.00 20.00    +0.160 HD
ATOM     79 H79  LIG A   1      12.630  13.871   4.295  1.00 20.00    +0.049 H 
ATOM     80 H80  LIG A   1      13.822  12.710   4.833  1.00 20.00    +0.049 H 
ATOM     81 H81  LIG A   1      14.870  12.800   2.497  1.00 20.00    +0.030 H 
ATOM     82 H82  LIG A   1      13.627  13.955   2.021  1.00 20.00    +0.030 H 
ATOM     83 H83  LIG A   1      13.124  11.091   3.000  1.00 20.00    +0.043 H 
ATOM     84 H84  LIG A   1      11.859  12.256   2.564  1.00 20.00    +0.043 H 
ATOM     85 H85  LIG A   1      14.004  11.323   0.773  1.00 20.00    +0.122 HD
ATOM     86 H86  LIG A   1      11.725   9.952   1.439  1.00 20.00    +0.043 H 
ATOM     87 H87  LIG A   1      12.788   9.703   0.078  1.00 20.00    +0.043 H 
ATOM     88 H88  LIG A   1      10.597  10.004  -0.823  1.00 20.00    +0.028 H 
ATOM     89 H89  LIG A   1      11.574  11.374  -1.287  1.00 20.00    +0.028 H 
ATOM     90 H90  LIG A   1       9.360  12.144  -0.695  1.00 20.00    +0.028 H 
ATOM     91 H91  LIG A   1      10.517  12.795   0.449  1.00 20.00    +0.028 H 
ATOM     92 H92  LIG A   1       8.495  12.099   1.616  1.00 20.00    +0.043 H 
ATOM     93 H93  LIG A   1       9.826  11.091   2.154  1.00 20.00    +0.043 H 
ATOM     94 H94  LIG A   1       9.052   9.373   0.676  1.00 20.00    +0.118 HD
ATOM     95 H95  LIG A   1       7.862  10.329   0.104  1.00 20.00    +0.118 HD
ATOM     96 H96  LIG A   1      16.244  16.655   4.447  1.00 20.00    +0.068 H 
ATOM     97 H97  LIG A   1      22.942  17.956   8.548  1.00 20.00    +0.057 H 
ATOM     98 H98  LIG A   1      22.603  16.937  10.777  1.00 20.00    +0.119 HD
ATOM     99 H99  LIG A   1      24.001  17.777  10.641  1.00 20.00    +0.119 HD
ATOM    100 H100 LIG A   1      13.604  14.220   0.960  1.00 20.00    +0.024 H 
ATOM    101 H101 LIG A   1      13.652  15.575   2.092  1.00 20.00    +0.024 H 
ATOM    102 H102 LIG A   1      15.138  14.680   1.705  1.00 20.00    +0.024 H 
ATOM    103 H103 LIG A   1      12.681  13.520   3.141  1.00 20.00    +0.038 H 
ATOM    104 H104 LIG A   1      14.140  12.607   2.783  1.00 20.00    +0.038 H 
ATOM    105 H105 LIG A   1      16.590  15.246   5.933  1.00 20.00    +0.055 H 
ATOM    106 H106 LIG A   1      16.646  13.064   6.875  1.00 20.00    +0.119 HD
ATOM    107 H107 LIG A   1      17.841  12.573   5.883  1.00 20.00    +0.119 HD
ATOM    108 H108 LIG A   1      19.019  14.173   4.410  1.00 20.00    +0.029 H 
ATOM    109 H109 LIG A   1      18.038  15.469   3.763  1.00 20.00    +0.029 H 
ATOM    110 H110 LIG A   1      19.977  16.366   4.891  1.00 20.00    +0.029 H 
ATOM    111 H111 LIG A   1      18.500  16.917   5.655  1.00 20.00    +0.029 H 
ATOM    112 H112 LIG A   1      20.147  14.573   6.745  1.00 20.00    +0.049 H 
ATOM    113 H113 LIG A   1      18.829  15.409   7.576  1.00 20.00    +0.049 H 
ATOM    114 H114 LIG A   1      21.469  16.540   6.850  1.00 20.00    +0.163 HD
ATOM    115 H115 LIG A   1      19.058  18.990   8.554  1.00 20.00    +0.191 HD
ATOM    116 H116 LIG A   1      21.146  19.172   8.896  1.00 20.00    +0.159 HD
ATOM    117 H117 LIG A   1      22.095  17.833   8.636  1.00 20.00    +0.159 HD
ENDROOT
TORSDOF 0
                                                                                                                        
ENDMDL
MODEL 9
REMARK VINA RESULT:   -11.088      3.575      6.378
REMARK INTER + INTRA:         -11.088
REMARK INTER:                 -11.088
REMARK INTRA:                   0.000
REMARK UNBOUND:                 0.000
ROOT
ATOM      1 C1   LIG A   1      19.602  11.427   4.654  1.00 20.00    -0.060 C 
ATOM      2 C2   LIG A   1      19.794  12.340   5.881  1.00 20.00    -0.016 C 
ATOM      3 C3   LIG A   1      21.337  12.401   6.155  1.00 20.00    -0.023 C 
ATOM      4 C4   LIG A   1      21.742  13.462   7.140  1.00 20.00    -0.048 A 
ATOM      5 C5   LIG A   1      22.358  14.629   6.681  1.00 20.00    -0.058 A 
ATOM      6 C6   LIG A   1      22.262  15.791   7.436  1.00 20.00    -0.051 A 
ATOM      7 C7   LIG A   1      21.496  15.784   8.604  1.00 20.00    +0.017 A 
ATOM      8 C8   LIG A   1      21.175  14.559   9.201  1.00 20.00    -0.051 A 
ATOM      9 C9   LIG A   1      21.312  13.385   8.467  1.00 20.00    -0.058 A 
ATOM     10 C10  LIG A   1      20.820  17.020   9.052  1.00 20.00    +0.140 C 
ATOM     11 C11  LIG A   1      19.476  17.090   9.179  1.00 20.00    +0.047 C 
ATOM     12 C12  LIG A   1      18.445  16.169   8.598  1.00 20.00    +0.256 C 
ATOM     13 O13  LIG A   1      17.325  16.158   9.104  1.00 20.00    -0.269 OA
ATOM     14 N14  LIG A   1      18.720  15.738   7.305  1.00 20.00    -0.278 NA
ATOM     15 C15  LIG A   1      18.280  16.634   6.224  1.00 20.00    +0.029 C 
ATOM     16 C16  LIG A   1      18.630  18.136   6.363  1.00 20.00    -0.034 C 
ATOM     17 C17  LIG A   1      20.121  18.413   6.140  1.00 20.00    -0.034 C 
ATOM     18 C18  LIG A   1      20.641  19.771   6.653  1.00 20.00    +0.085 C 
ATOM     19 C19  LIG A   1      22.072  19.951   6.165  1.00 20.00    +0.311 C 
ATOM     20 O20  LIG A   1      23.046  19.271   6.451  1.00 20.00    -0.252 OA
ATOM     21 O21  LIG A   1      22.203  20.986   5.307  1.00 20.00    -0.481 OA
ATOM     22 C22  LIG A   1      20.543  20.115   8.137  1.00 20.00    +0.009 A 
ATOM     23 C23  LIG A   1      19.926  21.338   8.462  1.00 20.00    -0.052 A 
ATOM     24 C24  LIG A   1      19.853  21.809   9.782  1.00 20.00    -0.038 A 
ATOM     25 C25  LIG A   1      20.430  21.104  10.837  1.00 20.00    +0.038 A 
ATOM     26 N26  LIG A   1      20.334  21.481  12.174  1.00 20.00    -0.385 NA
ATOM     27 C27  LIG A   1      20.015  22.844  12.584  1.00 20.00    +0.016 C 
ATOM     28 C28  LIG A   1      21.218  23.770  12.409  1.00 20.00    -0.023 C 
ATOM     29 C29  LIG A   1      20.885  25.184  12.884  1.00 20.00    -0.003 C 
ATOM     30 N30  LIG A   1      22.065  26.041  12.753  1.00 20.00    -0.317 NA
ATOM     31 C31  LIG A   1      21.809  27.418  13.175  1.00 20.00    -0.005 C 
ATOM     32 C32  LIG A   1      22.612  27.775  14.429  1.00 20.00    -0.039 C 
ATOM     33 C33  LIG A   1      22.200  27.035  15.709  1.00 20.00    -0.040 C 
ATOM     34 C34  LIG A   1      20.760  27.275  16.168  1.00 20.00    -0.008 C 
ATOM     35 N35  LIG A   1      20.484  28.677  16.474  1.00 20.00    -0.330 NA
ATOM     36 C36  LIG A   1      21.020  19.876  10.529  1.00 20.00    +0.004 A 
ATOM     37 C37  LIG A   1      21.070  19.379   9.213  1.00 20.00    +0.133 A 
ATOM     38 O38  LIG A   1      21.658  18.139   9.086  1.00 20.00    -0.456 OA
ATOM     39 C39  LIG A   1      18.677  14.346   7.137  1.00 20.00    +0.246 C 
ATOM     40 O40  LIG A   1      18.348  13.584   8.053  1.00 20.00    -0.273 OA
ATOM     41 C41  LIG A   1      19.084  13.750   5.732  1.00 20.00    +0.088 C 
ATOM     42 N42  LIG A   1      17.838  13.632   4.941  1.00 20.00    -0.320 NA
ATOM     43 C43  LIG A   1      22.514  22.761  12.823  1.00 20.00    -0.056 C 
ATOM     44 C44  LIG A   1      21.077  23.220  12.625  1.00 20.00    -0.002 C 
ATOM     45 S45  LIG A   1      20.015  21.860  12.058  1.00 20.00    -0.087 SA
ATOM     46 C46  LIG A   1      20.498  21.772  10.362  1.00 20.00    +0.205 C 
ATOM     47 O47  LIG A   1      21.124  22.675   9.817  1.00 20.00    -0.285 OA
ATOM     48 C48  LIG A   1      19.988  20.525   9.614  1.00 20.00    +0.074 C 
ATOM     49 N49  LIG A   1      18.825  20.900   8.779  1.00 20.00    -0.321 NA
ATOM     50 C50  LIG A   1      21.120  19.956   8.742  1.00 20.00    -0.028 C 
ATOM     51 C51  LIG A   1      20.942  18.492   8.325  1.00 20.00    -0.034 C 
ATOM     52 C52  LIG A   1      19.667  18.199   7.533  1.00 20.00    +0.018 C 
ATOM     53 N53  LIG A   1      19.733  16.875   6.925  1.00 20.00    -0.357 NA
ATOM     54 C54  LIG A   1      19.571  15.743   7.648  1.00 20.00    +0.185 C 
ATOM     55 N55  LIG A   1      19.237  15.689   8.884  1.00 20.00    -0.270 NA
ATOM     56 N56  LIG A   1      19.797  14.649   6.893  1.00 20.00    -0.370 NA
ATOM     57 H57  LIG A   1      18.552  11.155   4.517  1.00 20.00    +0.023 H 
ATOM     58 H58  LIG A   1      20.157  10.490   4.778  1.00 20.00    +0.023 H 
ATOM     59 H59  LIG A   1      19.961  11.911   3.740  1.00 20.00    +0.023 H 
ATOM     60 H60  LIG A   1      19.338  11.812   6.729  1.00 20.00    +0.032 H 
ATOM     61 H61  LIG A   1      21.868  12.566   5.208  1.00 20.00    +0.032 H 
ATOM     62 H62  LIG A   1      21.682  11.425   6.523  1.00 20.00    +0.032 H 
ATOM     63 H63  LIG A   1      22.791  14.681   5.685  1.00 20.00    +0.063 H 
ATOM     64 H64  LIG A   1      22.644  16.720   7.022  1.00 20.00    +0.063 H 
ATOM     65 H65  LIG A   1      20.646  14.519  10.152  1.00 20.00    +0.063 H 
ATOM     66 H66  LIG A   1      20.882  12.465   8.862  1.00 20.00    +0.063 H 
ATOM     67 H67  LIG A   1      18.997  17.979   9.575  1.00 20.00    +0.072 H 
ATOM     68 H68  LIG A   1      17.187  16.543   6.174  1.00 20.00    +0.050 H 
ATOM     69 H69  LIG A   1      18.671  16.283   5.266  1.00 20.00    +0.050 H 
ATOM     70 H70  LIG A   1      18.282  18.532   7.320  1.00 20.00    +0.029 H 
ATOM     71 H71  LIG A   1      18.069  18.688   5.598  1.00 20.00    +0.029 H 
ATOM     72 H72  LIG A   1      20.716  17.610   6.551  1.00 20.00    +0.028 H 
ATOM     73 H73  LIG A   1      20.309  18.355   5.059  1.00 20.00    +0.028 H 
ATOM     74 H74  LIG A   1      20.040  20.514   6.106  1.00 20.00    +0.047 H 
ATOM     75 H75  LIG A   1      23.163  20.998   5.103  1.00 20.00    +0.296 HD
ATOM     76 H76  LIG A   1      19.489  21.960   7.682  1.00 20.00    +0.063 H 
ATOM     77 H77  LIG A   1      19.340  22.749   9.954  1.00 20.00    +0.064 H 
ATOM     78 H78  LIG A   1      21.055  21.055  12.751  1.00 20.00    +0.160 HD
ATOM     79 H79  LIG A   1      19.743  22.810  13.646  1.00 20.00    +0.049 H 
ATOM     80 H80  LIG A   1      19.131  23.229  12.063  1.00 20.00    +0.049 H 
ATOM     81 H81  LIG A   1      21.528  23.797  11.357  1.00 20.00    +0.030 H 
ATOM     82 H82  LIG A   1      22.070  23.375  12.980  1.00 20.00    +0.030 H 
ATOM     83 H83  LIG A   1      20.059  25.585  12.287  1.00 20.00    +0.043 H 
ATOM     84 H84  LIG A   1      20.562  25.145  13.930  1.00 20.00    +0.043 H 
ATOM     85 H85  LIG A   1      22.366  26.038  11.778  1.00 20.00    +0.122 HD
ATOM     86 H86  LIG A   1      20.742  27.629  13.310  1.00 20.00    +0.043 H 
ATOM     87 H87  LIG A   1      22.139  28.084  12.368  1.00 20.00    +0.043 H 
ATOM     88 H88  LIG A   1      22.542  28.857  14.592  1.00 20.00    +0.028 H 
ATOM     89 H89  LIG A   1      23.676  27.575  14.243  1.00 20.00    +0.028 H 
ATOM     90 H90  LIG A   1      22.885  27.337  16.515  1.00 20.00    +0.028 H 
ATOM     91 H91  LIG A   1      22.351  25.957  15.576  1.00 20.00    +0.028 H 
ATOM     92 H92  LIG A   1      20.570  26.685  17.072  1.00 20.00    +0.043 H 
ATOM     93 H93  LIG A   1      20.044  26.928  15.416  1.00 20.00    +0.043 H 
ATOM     94 H94  LIG A   1      20.597  29.248  15.639  1.00 20.00    +0.118 HD
ATOM     95 H95  LIG A   1      21.169  29.020  17.148  1.00 20.00    +0.118 HD
ATOM     96 H96  LIG A   1      21.438  19.264  11.326  1.00 20.00    +0.068 H 
ATOM     97 H97  LIG A   1      19.765  14.437   5.221  1.00 20.00    +0.057 H 
ATOM     98 H98  LIG A   1      17.308  14.498   4.938  1.00 20.00    +0.119 HD
ATOM     99 H99  LIG A   1      18.057  13.410   3.971  1.00 20.00    +0.119 HD
ATOM    100 H100 LIG A   1      23.119  23.590  13.203  1.00 20.00    +0.024 H 
ATOM    101 H101 LIG A   1      22.579  21.944  13.551  1.00 20.00    +0.024 H 
ATOM    102 H102 LIG A   1      22.968  22.426  11.884  1.00 20.00    +0.024 H 
ATOM    103 H103 LIG A   1      20.679  23.572  13.583  1.00 20.00    +0.038 H 
ATOM    104 H104 LIG A   1      21.028  24.065  11.932  1.00 20.00    +0.038 H 
ATOM    105 H105 LIG A   1      19.680  19.760  10.339  1.00 20.00    +0.055 H 
ATOM    106 H106 LIG A   1      18.074  21.231   9.386  1.00 20.00    +0.119 HD
ATOM    107 H107 LIG A   1      19.084  21.702   8.197  1.00 20.00    +0.119 HD
ATOM    108 H108 LIG A   1      21.258  20.577   7.846  1.00 20.00    +0.029 H 
ATOM    109 H109 LIG A   1      22.066  20.025   9.296  1.00 20.00    +0.029 H 
ATOM    110 H110 LIG A   1      21.819  18.205   7.727  1.00 20.00    +0.029 H 
ATOM    111 H111 LIG A   1      20.970  17.861   9.222  1.00 20.00    +0.029 H 
ATOM    112 H112 LIG A   1      19.551  18.932   6.725  1.00 20.00    +0.049 H 
ATOM    113 H113 LIG A   1      18.778  18.268   8.171  1.00 20.00    +0.049 H 
ATOM    114 H114 LIG A   1      20.458  16.798   6.223  1.00 20.00    +0.163 HD
ATOM    115 H115 LIG A   1      19.203  14.716   9.190  1.00 20.00    +0.191 HD
ATOM    116 H116 LIG A   1      19.451  13.789   7.296  1.00 20.00    +0.159 HD
ATOM    117 H117 LIG A   1      19.442  14.762   5.949  1.00 20.00    +0.159 HD
ENDROOT
TORSDOF 0
                                                                                                                        
ENDMDL
