ROOT
ATOM      1 N1   LIG A   1      -8.305   1.317  -0.583  1.00 20.00    -0.330 NA
ATOM      2 C2   LIG A   1      -7.858   0.157   0.178  1.00 20.00    -0.008 C 
ATOM      3 C3   LIG A   1      -6.560   0.428   0.944  1.00 20.00    -0.040 C 
ATOM      4 C4   LIG A   1      -5.352   0.665   0.030  1.00 20.00    -0.039 C 
ATOM      5 C5   LIG A   1      -4.056   0.955   0.799  1.00 20.00    -0.005 C 
ATOM      6 N6   LIG A   1      -3.603  -0.085   1.724  1.00 20.00    -0.317 NA
ATOM      7 C7   LIG A   1      -3.296  -1.377   1.112  1.00 20.00    -0.003 C 
ATOM      8 C8   LIG A   1      -2.138  -1.363   0.111  1.00 20.00    -0.023 C 
ATOM      9 C9   LIG A   1      -0.830  -0.865   0.730  1.00 20.00    +0.016 C 
ATOM     10 N10  LIG A   1       0.250  -1.009  -0.247  1.00 20.00    -0.385 NA
ATOM     11 C11  LIG A   1       1.537  -0.562   0.069  1.00 20.00    +0.035 A 
ATOM     12 C12  LIG A   1       1.995  -0.378   1.379  1.00 20.00    -0.038 A 
ATOM     13 C13  LIG A   1       3.319  -0.004   1.639  1.00 20.00    -0.048 A 
ATOM     14 C14  LIG A   1       4.220   0.165   0.586  1.00 20.00    +0.034 A 
ATOM     15 C15  LIG A   1       3.795  -0.048  -0.721  1.00 20.00    +0.036 A 
ATOM     16 C16  LIG A   1       2.466  -0.423  -0.973  1.00 20.00    -0.027 A 
ATOM     17 C17  LIG A   1       4.735   0.112  -1.848  1.00 20.00    +0.194 C 
ATOM     18 O18  LIG A   1       4.360  -0.065  -3.002  1.00 20.00    -0.289 OA
ATOM     19 C19  LIG A   1       6.134   0.493  -1.568  1.00 20.00    +0.034 A 
ATOM     20 C20  LIG A   1       7.038   0.640  -2.629  1.00 20.00    -0.050 A 
ATOM     21 C21  LIG A   1       8.362   1.001  -2.374  1.00 20.00    -0.061 A 
ATOM     22 C22  LIG A   1       8.787   1.216  -1.063  1.00 20.00    -0.061 A 
ATOM     23 C23  LIG A   1       7.888   1.070  -0.005  1.00 20.00    -0.050 A 
ATOM     24 C24  LIG A   1       6.559   0.707  -0.258  1.00 20.00    +0.034 A 
ATOM     25 C25  LIG A   1       5.615   0.555   0.867  1.00 20.00    +0.194 C 
ATOM     26 O26  LIG A   1       5.986   0.749   2.019  1.00 20.00    -0.289 OA
ATOM     27 O27  LIG A   1       1.572  -1.654  -0.635  1.00 20.00    -0.504 OA
ATOM     28 C28  LIG A   1       0.575  -0.772  -0.332  1.00 20.00    +0.157 A 
ATOM     29 C29  LIG A   1      -0.742  -1.136  -0.574  1.00 20.00    -0.016 A 
ATOM     30 C30  LIG A   1      -1.769  -0.266  -0.204  1.00 20.00    -0.058 A 
ATOM     31 C31  LIG A   1      -1.470   0.958   0.404  1.00 20.00    -0.058 A 
ATOM     32 C32  LIG A   1      -0.141   1.325   0.629  1.00 20.00    -0.016 A 
ATOM     33 C33  LIG A   1       0.875   0.462   0.242  1.00 20.00    +0.157 A 
ATOM     34 O34  LIG A   1       2.172   0.853   0.403  1.00 20.00    -0.504 OA
ATOM     35 H35  LIG A   1      -9.198   1.104  -1.027  1.00 20.00    +0.118 HD
ATOM     36 H36  LIG A   1      -7.655   1.507  -1.343  1.00 20.00    +0.118 HD
ATOM     37 H37  LIG A   1      -7.730  -0.698  -0.494  1.00 20.00    +0.043 H 
ATOM     38 H38  LIG A   1      -8.641  -0.109   0.897  1.00 20.00    +0.043 H 
ATOM     39 H39  LIG A   1      -6.369  -0.437   1.589  1.00 20.00    +0.028 H 
ATOM     40 H40  LIG A   1      -6.696   1.292   1.607  1.00 20.00    +0.028 H 
ATOM     41 H41  LIG A   1      -5.546   1.527  -0.619  1.00 20.00    +0.028 H 
ATOM     42 H42  LIG A   1      -5.215  -0.195  -0.635  1.00 20.00    +0.028 H 
ATOM     43 H43  LIG A   1      -4.200   1.872   1.384  1.00 20.00    +0.043 H 
ATOM     44 H44  LIG A   1      -3.259   1.193   0.085  1.00 20.00    +0.043 H 
ATOM     45 H45  LIG A   1      -4.308  -0.217   2.450  1.00 20.00    +0.122 HD
ATOM     46 H46  LIG A   1      -4.188  -1.800   0.637  1.00 20.00    +0.043 H 
ATOM     47 H47  LIG A   1      -3.038  -2.069   1.923  1.00 20.00    +0.043 H 
ATOM     48 H48  LIG A   1      -1.994  -2.386  -0.261  1.00 20.00    +0.030 H 
ATOM     49 H49  LIG A   1      -2.394  -0.759  -0.767  1.00 20.00    +0.030 H 
ATOM     50 H50  LIG A   1      -0.612  -1.463   1.622  1.00 20.00    +0.049 H 
ATOM     51 H51  LIG A   1      -0.927   0.186   1.024  1.00 20.00    +0.049 H 
ATOM     52 H52  LIG A   1      -0.025  -0.719  -1.184  1.00 20.00    +0.160 HD
ATOM     53 H53  LIG A   1       1.334  -0.521   2.228  1.00 20.00    +0.064 H 
ATOM     54 H54  LIG A   1       3.641   0.143   2.669  1.00 20.00    +0.063 H 
ATOM     55 H55  LIG A   1       2.155  -0.611  -1.999  1.00 20.00    +0.065 H 
ATOM     56 H56  LIG A   1       6.713   0.474  -3.655  1.00 20.00    +0.063 H 
ATOM     57 H57  LIG A   1       9.062   1.115  -3.199  1.00 20.00    +0.062 H 
ATOM     58 H58  LIG A   1       9.818   1.497  -0.864  1.00 20.00    +0.062 H 
ATOM     59 H59  LIG A   1       8.227   1.239   1.016  1.00 20.00    +0.063 H 
ATOM     60 H60  LIG A   1       2.230  -1.566   0.080  1.00 20.00    +0.293 HD
ATOM     61 H61  LIG A   1      -0.970  -2.094  -1.030  1.00 20.00    +0.066 H 
ATOM     62 H62  LIG A   1      -2.805  -0.544  -0.381  1.00 20.00    +0.062 H 
ATOM     63 H63  LIG A   1      -2.273   1.630   0.696  1.00 20.00    +0.062 H 
ATOM     64 H64  LIG A   1       0.097   2.281   1.084  1.00 20.00    +0.066 H 
ATOM     65 H65  LIG A   1       2.648   0.523  -0.382  1.00 20.00    +0.293 HD
ENDROOT
TORSDOF 0
