ROOT
ATOM      1 N1   LIG A   1       3.157   1.416   0.308  1.00 20.00    -0.287 NA
ATOM      2 C2   LIG A   1       3.379   0.140   0.248  1.00 20.00    +0.110 C 
ATOM      3 N3   LIG A   1       4.604  -0.284  -0.167  1.00 20.00    -0.386 NA
ATOM      4 C4   LIG A   1       2.306  -0.870   0.650  1.00 20.00    +0.075 C 
ATOM      5 N5   LIG A   1       1.041  -0.446   0.095  1.00 20.00    -0.348 NA
ATOM      6 C6   LIG A   1      -0.150  -0.987   0.528  1.00 20.00    +0.237 C 
ATOM      7 O7   LIG A   1      -0.229  -1.750   1.485  1.00 20.00    -0.273 OA
ATOM      8 C8   LIG A   1      -1.352  -0.596  -0.349  1.00 20.00    +0.087 C 
ATOM      9 C9   LIG A   1      -2.683  -0.580   0.397  1.00 20.00    -0.027 C 
ATOM     10 C10  LIG A   1      -3.331   0.745   0.020  1.00 20.00    -0.039 C 
ATOM     11 C11  LIG A   1      -2.554   1.211  -1.195  1.00 20.00    -0.004 C 
ATOM     12 N12  LIG A   1      -1.182   0.773  -0.914  1.00 20.00    -0.306 NA
ATOM     13 N13  LIG A   1       5.021   1.560  -1.647  1.00 20.00    -0.330 NA
ATOM     14 C14  LIG A   1       5.933   1.065  -0.626  1.00 20.00    -0.008 C 
ATOM     15 C15  LIG A   1       5.879  -0.459  -0.502  1.00 20.00    -0.040 C 
ATOM     16 C16  LIG A   1       4.498  -1.046  -0.178  1.00 20.00    -0.039 C 
ATOM     17 C17  LIG A   1       3.908  -0.510   1.130  1.00 20.00    -0.005 C 
ATOM     18 N18  LIG A   1       2.715  -1.250   1.562  1.00 20.00    -0.317 NA
ATOM     19 C19  LIG A   1       1.547  -0.960   0.721  1.00 20.00    -0.003 C 
ATOM     20 C20  LIG A   1       0.328  -1.708   1.270  1.00 20.00    -0.023 C 
ATOM     21 C21  LIG A   1      -0.910  -1.509   0.393  1.00 20.00    +0.017 C 
ATOM     22 N22  LIG A   1      -1.383  -0.130   0.499  1.00 20.00    -0.370 NA
ATOM     23 C23  LIG A   1      -2.558   0.121  -0.216  1.00 20.00    +0.126 A 
ATOM     24 C24  LIG A   1      -2.629  -0.031  -1.593  1.00 20.00    -0.019 A 
ATOM     25 C25  LIG A   1      -3.827   0.251  -2.240  1.00 20.00    -0.049 A 
ATOM     26 C26  LIG A   1      -4.927   0.686  -1.495  1.00 20.00    +0.000 A 
ATOM     27 C27  LIG A   1      -6.161   0.984  -2.099  1.00 20.00    -0.053 A 
ATOM     28 C28  LIG A   1      -7.235   1.420  -1.326  1.00 20.00    -0.062 A 
ATOM     29 C29  LIG A   1      -7.079   1.559   0.048  1.00 20.00    -0.060 A 
ATOM     30 C30  LIG A   1      -5.849   1.261   0.643  1.00 20.00    -0.036 A 
ATOM     31 C31  LIG A   1      -4.762   0.825  -0.102  1.00 20.00    +0.073 A 
ATOM     32 N32  LIG A   1      -3.600   0.550   0.519  1.00 20.00    -0.231 NA
ATOM     33 H33  LIG A   1       2.194   1.564   0.638  1.00 20.00    +0.189 HD
ATOM     34 H34  LIG A   1       5.285   0.469  -0.170  1.00 20.00    +0.157 HD
ATOM     35 H35  LIG A   1       4.956  -1.148   0.226  1.00 20.00    +0.157 HD
ATOM     36 H36  LIG A   1       2.546  -1.863   0.259  1.00 20.00    +0.058 H 
ATOM     37 H37  LIG A   1       2.239  -0.914   1.742  1.00 20.00    +0.058 H 
ATOM     38 H38  LIG A   1       1.025   0.014  -0.814  1.00 20.00    +0.163 HD
ATOM     39 H39  LIG A   1      -1.393  -1.316  -1.177  1.00 20.00    +0.057 H 
ATOM     40 H40  LIG A   1      -3.311  -1.413   0.059  1.00 20.00    +0.029 H 
ATOM     41 H41  LIG A   1      -2.582  -0.658   1.484  1.00 20.00    +0.029 H 
ATOM     42 H42  LIG A   1      -3.213   1.460   0.843  1.00 20.00    +0.028 H 
ATOM     43 H43  LIG A   1      -4.401   0.639  -0.184  1.00 20.00    +0.028 H 
ATOM     44 H44  LIG A   1      -2.921   0.730  -2.109  1.00 20.00    +0.043 H 
ATOM     45 H45  LIG A   1      -2.611   2.295  -1.331  1.00 20.00    +0.043 H 
ATOM     46 H46  LIG A   1      -0.818   1.369  -0.166  1.00 20.00    +0.123 HD
ATOM     47 H47  LIG A   1       5.258   1.149  -2.550  1.00 20.00    +0.118 HD
ATOM     48 H48  LIG A   1       5.140   2.567  -1.751  1.00 20.00    +0.118 HD
ATOM     49 H49  LIG A   1       6.955   1.365  -0.883  1.00 20.00    +0.043 H 
ATOM     50 H50  LIG A   1       5.695   1.536   0.333  1.00 20.00    +0.043 H 
ATOM     51 H51  LIG A   1       6.235  -0.910  -1.437  1.00 20.00    +0.028 H 
ATOM     52 H52  LIG A   1       6.588  -0.769   0.276  1.00 20.00    +0.028 H 
ATOM     53 H53  LIG A   1       3.818  -0.850  -1.014  1.00 20.00    +0.028 H 
ATOM     54 H54  LIG A   1       4.603  -2.136  -0.110  1.00 20.00    +0.028 H 
ATOM     55 H55  LIG A   1       4.661  -0.617   1.920  1.00 20.00    +0.043 H 
ATOM     56 H56  LIG A   1       3.681   0.559   1.055  1.00 20.00    +0.043 H 
ATOM     57 H57  LIG A   1       2.498  -0.969   2.519  1.00 20.00    +0.122 HD
ATOM     58 H58  LIG A   1       1.350   0.118   0.709  1.00 20.00    +0.043 H 
ATOM     59 H59  LIG A   1       1.727  -1.287  -0.309  1.00 20.00    +0.043 H 
ATOM     60 H60  LIG A   1       0.552  -2.781   1.312  1.00 20.00    +0.030 H 
ATOM     61 H61  LIG A   1       0.116  -1.382   2.296  1.00 20.00    +0.030 H 
ATOM     62 H62  LIG A   1      -0.665  -1.769  -0.643  1.00 20.00    +0.049 H 
ATOM     63 H63  LIG A   1      -1.695  -2.195   0.736  1.00 20.00    +0.049 H 
ATOM     64 H64  LIG A   1      -1.647   0.094   1.460  1.00 20.00    +0.162 HD
ATOM     65 H65  LIG A   1      -1.761  -0.342  -2.163  1.00 20.00    +0.066 H 
ATOM     66 H66  LIG A   1      -3.892   0.138  -3.318  1.00 20.00    +0.063 H 
ATOM     67 H67  LIG A   1      -6.289   0.879  -3.174  1.00 20.00    +0.063 H 
ATOM     68 H68  LIG A   1      -8.188   1.650  -1.795  1.00 20.00    +0.062 H 
ATOM     69 H69  LIG A   1      -7.909   1.899   0.662  1.00 20.00    +0.062 H 
ATOM     70 H70  LIG A   1      -5.735   1.374   1.719  1.00 20.00    +0.065 H 
ENDROOT
TORSDOF 0
