ROOT
ATOM      1 C1   LIG A   1      -2.393  -1.247   0.726  1.00 20.00    -0.044 C 
ATOM      2 C2   LIG A   1      -1.193  -0.575  -0.003  1.00 20.00    +0.047 C 
ATOM      3 C3   LIG A   1      -1.239  -1.045  -1.478  1.00 20.00    -0.044 C 
ATOM      4 C4   LIG A   1      -1.469   0.959   0.056  1.00 20.00    -0.006 C 
ATOM      5 C5   LIG A   1      -0.220   1.814   0.271  1.00 20.00    +0.058 C 
ATOM      6 O6   LIG A   1      -0.448   3.133  -0.244  1.00 20.00    -0.393 OA
ATOM      7 C7   LIG A   1       0.990   1.201  -0.408  1.00 20.00    -0.006 C 
ATOM      8 C8   LIG A   1       1.320  -0.191   0.197  1.00 20.00    +0.047 C 
ATOM      9 C9   LIG A   1       2.151  -0.964  -0.860  1.00 20.00    -0.044 C 
ATOM     10 C10  LIG A   1       2.238   0.037   1.430  1.00 20.00    -0.044 C 
ATOM     11 N11  LIG A   1       0.082  -0.849   0.696  1.00 20.00    -0.144 NA
ATOM     12 O12  LIG A   1       0.291  -2.259   0.862  1.00 20.00    -0.120 OA
ATOM     13 N13  LIG A   1      -7.492  -0.933  -3.136  1.00 20.00    -0.289 NA
ATOM     14 C14  LIG A   1      -8.521  -0.599  -2.430  1.00 20.00    +0.092 C 
ATOM     15 N15  LIG A   1      -8.809   0.708  -2.174  1.00 20.00    -0.388 NA
ATOM     16 C16  LIG A   1      -9.421  -1.697  -1.899  1.00 20.00    +0.022 C 
ATOM     17 C17  LIG A   1      -9.387  -1.832  -0.378  1.00 20.00    +0.022 C 
ATOM     18 N18  LIG A   1      -8.065  -2.227   0.121  1.00 20.00    -0.384 NA
ATOM     19 C19  LIG A   1      -7.201  -1.207   0.547  1.00 20.00    +0.038 A 
ATOM     20 C20  LIG A   1      -7.609  -0.211   1.445  1.00 20.00    -0.038 A 
ATOM     21 C21  LIG A   1      -6.725   0.785   1.868  1.00 20.00    -0.045 A 
ATOM     22 C22  LIG A   1      -5.409   0.777   1.405  1.00 20.00    +0.065 A 
ATOM     23 C23  LIG A   1      -4.455   1.815   1.817  1.00 20.00    +0.193 C 
ATOM     24 O24  LIG A   1      -4.772   2.738   2.556  1.00 20.00    -0.289 OA
ATOM     25 C25  LIG A   1      -3.087   1.699   1.289  1.00 20.00    +0.030 C 
ATOM     26 C26  LIG A   1      -2.782   0.677   0.475  1.00 20.00    +0.138 C 
ATOM     27 C27  LIG A   1      -1.427   0.506  -0.087  1.00 20.00    +0.017 A 
ATOM     28 C28  LIG A   1      -1.260   0.069  -1.404  1.00 20.00    -0.049 A 
ATOM     29 C29  LIG A   1       0.021  -0.115  -1.942  1.00 20.00    -0.038 A 
ATOM     30 C30  LIG A   1       1.176   0.147  -1.194  1.00 20.00    +0.034 A 
ATOM     31 N31  LIG A   1       2.415  -0.129  -1.771  1.00 20.00    -0.385 NA
ATOM     32 C32  LIG A   1       3.662   0.363  -1.186  1.00 20.00    +0.016 C 
ATOM     33 C33  LIG A   1       4.263  -0.693  -0.257  1.00 20.00    -0.023 C 
ATOM     34 C34  LIG A   1       5.481  -0.175   0.510  1.00 20.00    -0.003 C 
ATOM     35 N35  LIG A   1       6.570   0.176  -0.399  1.00 20.00    -0.317 NA
ATOM     36 C36  LIG A   1       7.693   0.835   0.271  1.00 20.00    -0.005 C 
ATOM     37 C37  LIG A   1       8.521  -0.110   1.150  1.00 20.00    -0.039 C 
ATOM     38 C38  LIG A   1       9.700   0.590   1.837  1.00 20.00    -0.040 C 
ATOM     39 C39  LIG A   1      10.790   1.035   0.863  1.00 20.00    -0.008 C 
ATOM     40 N40  LIG A   1      11.917   1.626   1.577  1.00 20.00    -0.330 NA
ATOM     41 C41  LIG A   1       1.001   0.538   0.135  1.00 20.00    -0.038 A 
ATOM     42 C42  LIG A   1      -0.277   0.725   0.681  1.00 20.00    -0.049 A 
ATOM     43 O43  LIG A   1      -3.689  -0.290   0.068  1.00 20.00    -0.456 OA
ATOM     44 C44  LIG A   1      -4.975  -0.223   0.543  1.00 20.00    +0.140 A 
ATOM     45 C45  LIG A   1      -5.863  -1.214   0.123  1.00 20.00    +0.005 A 
ATOM     46 H46  LIG A   1      -3.346  -0.904   0.305  1.00 20.00    +0.025 H 
ATOM     47 H47  LIG A   1      -2.400  -0.998   1.794  1.00 20.00    +0.025 H 
ATOM     48 H48  LIG A   1      -2.378  -2.338   0.632  1.00 20.00    +0.025 H 
ATOM     49 H49  LIG A   1      -1.028  -2.116  -1.574  1.00 20.00    +0.025 H 
ATOM     50 H50  LIG A   1      -2.236  -0.880  -1.905  1.00 20.00    +0.025 H 
ATOM     51 H51  LIG A   1      -0.535  -0.505  -2.115  1.00 20.00    +0.025 H 
ATOM     52 H52  LIG A   1      -1.987   1.285  -0.856  1.00 20.00    +0.031 H 
ATOM     53 H53  LIG A   1      -2.161   1.203   0.873  1.00 20.00    +0.031 H 
ATOM     54 H54  LIG A   1      -0.027   1.927   1.345  1.00 20.00    +0.060 H 
ATOM     55 H55  LIG A   1      -1.226   3.469   0.233  1.00 20.00    +0.210 HD
ATOM     56 H56  LIG A   1       0.796   1.136  -1.486  1.00 20.00    +0.031 H 
ATOM     57 H57  LIG A   1       1.848   1.882  -0.322  1.00 20.00    +0.031 H 
ATOM     58 H58  LIG A   1       2.997  -0.356  -1.202  1.00 20.00    +0.025 H 
ATOM     59 H59  LIG A   1       2.574  -1.892  -0.459  1.00 20.00    +0.025 H 
ATOM     60 H60  LIG A   1       1.561  -1.221  -1.744  1.00 20.00    +0.025 H 
ATOM     61 H61  LIG A   1       3.140   0.595   1.153  1.00 20.00    +0.025 H 
ATOM     62 H62  LIG A   1       2.569  -0.910   1.871  1.00 20.00    +0.025 H 
ATOM     63 H63  LIG A   1       1.728   0.607   2.214  1.00 20.00    +0.025 H 
ATOM     64 H64  LIG A   1      -7.005  -0.093  -3.454  1.00 20.00    +0.189 HD
ATOM     65 H65  LIG A   1      -8.029   1.351  -2.241  1.00 20.00    +0.157 HD
ATOM     66 H66  LIG A   1      -9.388   0.899  -1.364  1.00 20.00    +0.157 HD
ATOM     67 H67  LIG A   1      -9.136  -2.647  -2.368  1.00 20.00    +0.037 H 
ATOM     68 H68  LIG A   1     -10.446  -1.473  -2.220  1.00 20.00    +0.037 H 
ATOM     69 H69  LIG A   1      -9.766  -0.921   0.097  1.00 20.00    +0.049 H 
ATOM     70 H70  LIG A   1     -10.086  -2.630  -0.096  1.00 20.00    +0.049 H 
ATOM     71 H71  LIG A   1      -7.599  -2.848  -0.544  1.00 20.00    +0.160 HD
ATOM     72 H72  LIG A   1      -8.617  -0.216   1.852  1.00 20.00    +0.064 H 
ATOM     73 H73  LIG A   1      -7.059   1.551   2.564  1.00 20.00    +0.063 H 
ATOM     74 H74  LIG A   1      -2.387   2.468   1.587  1.00 20.00    +0.070 H 
ATOM     75 H75  LIG A   1      -2.124  -0.142  -2.031  1.00 20.00    +0.063 H 
ATOM     76 H76  LIG A   1       0.107  -0.478  -2.963  1.00 20.00    +0.064 H 
ATOM     77 H77  LIG A   1       2.397  -0.044  -2.785  1.00 20.00    +0.160 HD
ATOM     78 H78  LIG A   1       4.361   0.555  -2.009  1.00 20.00    +0.049 H 
ATOM     79 H79  LIG A   1       3.520   1.324  -0.679  1.00 20.00    +0.049 H 
ATOM     80 H80  LIG A   1       4.534  -1.585  -0.837  1.00 20.00    +0.030 H 
ATOM     81 H81  LIG A   1       3.515  -1.024   0.474  1.00 20.00    +0.030 H 
ATOM     82 H82  LIG A   1       5.804  -0.957   1.206  1.00 20.00    +0.043 H 
ATOM     83 H83  LIG A   1       5.182   0.697   1.105  1.00 20.00    +0.043 H 
ATOM     84 H84  LIG A   1       6.899  -0.661  -0.881  1.00 20.00    +0.122 HD
ATOM     85 H85  LIG A   1       8.329   1.246  -0.519  1.00 20.00    +0.043 H 
ATOM     86 H86  LIG A   1       7.337   1.693   0.856  1.00 20.00    +0.043 H 
ATOM     87 H87  LIG A   1       7.887  -0.534   1.937  1.00 20.00    +0.028 H 
ATOM     88 H88  LIG A   1       8.891  -0.952   0.551  1.00 20.00    +0.028 H 
ATOM     89 H89  LIG A   1      10.130  -0.111   2.562  1.00 20.00    +0.028 H 
ATOM     90 H90  LIG A   1       9.331   1.448   2.410  1.00 20.00    +0.028 H 
ATOM     91 H91  LIG A   1      10.406   1.775   0.157  1.00 20.00    +0.043 H 
ATOM     92 H92  LIG A   1      11.150   0.181   0.280  1.00 20.00    +0.043 H 
ATOM     93 H93  LIG A   1      11.598   2.430   2.119  1.00 20.00    +0.118 HD
ATOM     94 H94  LIG A   1      12.284   0.960   2.255  1.00 20.00    +0.118 HD
ATOM     95 H95  LIG A   1       1.855   0.699   0.786  1.00 20.00    +0.064 H 
ATOM     96 H96  LIG A   1      -0.353   1.020   1.725  1.00 20.00    +0.063 H 
ATOM     97 H97  LIG A   1      -5.508  -1.985  -0.557  1.00 20.00    +0.068 H 
ENDROOT
TORSDOF 0
