ROOT
ATOM      1 C1   LIG A   1      -4.586  -0.163   4.614  1.00 20.00    -0.060 C 
ATOM      2 C2   LIG A   1      -3.679  -0.421   3.394  1.00 20.00    -0.016 C 
ATOM      3 C3   LIG A   1      -4.051  -1.816   2.783  1.00 20.00    -0.023 C 
ATOM      4 C4   LIG A   1      -4.771  -1.752   1.460  1.00 20.00    -0.044 A 
ATOM      5 C5   LIG A   1      -6.086  -1.291   1.378  1.00 20.00    -0.058 A 
ATOM      6 C6   LIG A   1      -6.583  -0.836   0.158  1.00 20.00    -0.054 A 
ATOM      7 C7   LIG A   1      -5.757  -0.803  -0.981  1.00 20.00    +0.009 A 
ATOM      8 C8   LIG A   1      -4.492  -1.416  -0.917  1.00 20.00    +0.130 A 
ATOM      9 C9   LIG A   1      -4.036  -1.953   0.287  1.00 20.00    -0.016 A 
ATOM     10 O10  LIG A   1      -3.683  -1.362  -2.032  1.00 20.00    -0.464 OA
ATOM     11 C11  LIG A   1      -2.320  -1.221  -1.862  1.00 20.00    +0.104 C 
ATOM     12 C12  LIG A   1      -1.629  -0.130  -1.464  1.00 20.00    +0.082 C 
ATOM     13 C13  LIG A   1      -0.150  -0.180  -1.512  1.00 20.00    -0.010 A 
ATOM     14 C14  LIG A   1       0.554  -1.157  -0.800  1.00 20.00    -0.052 A 
ATOM     15 C15  LIG A   1       1.953  -1.214  -0.853  1.00 20.00    -0.038 A 
ATOM     16 C16  LIG A   1       2.693  -0.311  -1.628  1.00 20.00    +0.034 A 
ATOM     17 N17  LIG A   1       4.088  -0.387  -1.578  1.00 20.00    -0.385 NA
ATOM     18 C18  LIG A   1       4.897   0.402  -2.504  1.00 20.00    +0.016 C 
ATOM     19 C19  LIG A   1       6.390   0.134  -2.282  1.00 20.00    -0.023 C 
ATOM     20 C20  LIG A   1       6.940   0.727  -0.977  1.00 20.00    -0.003 C 
ATOM     21 N21  LIG A   1       6.368   0.167   0.252  1.00 20.00    -0.317 NA
ATOM     22 C22  LIG A   1       6.842  -1.175   0.585  1.00 20.00    -0.005 C 
ATOM     23 C23  LIG A   1       8.266  -1.227   1.149  1.00 20.00    -0.039 C 
ATOM     24 C24  LIG A   1       8.422  -0.732   2.592  1.00 20.00    -0.040 C 
ATOM     25 C25  LIG A   1       8.072   0.738   2.810  1.00 20.00    -0.008 C 
ATOM     26 N26  LIG A   1       8.464   1.143   4.161  1.00 20.00    -0.330 NA
ATOM     27 C27  LIG A   1       1.986   0.693  -2.296  1.00 20.00    -0.038 A 
ATOM     28 C28  LIG A   1       0.585   0.749  -2.254  1.00 20.00    -0.052 A 
ATOM     29 C29  LIG A   1      -2.337   1.157  -1.131  1.00 20.00    +0.264 C 
ATOM     30 O30  LIG A   1      -2.118   2.173  -1.794  1.00 20.00    -0.268 OA
ATOM     31 N31  LIG A   1      -3.243   1.125  -0.078  1.00 20.00    -0.277 NA
ATOM     32 C32  LIG A   1      -4.411   2.009  -0.188  1.00 20.00    +0.029 C 
ATOM     33 C33  LIG A   1      -5.033   2.286  -1.576  1.00 20.00    -0.034 C 
ATOM     34 C34  LIG A   1      -5.262   1.145  -2.587  1.00 20.00    -0.034 C 
ATOM     35 C35  LIG A   1      -6.221  -0.007  -2.192  1.00 20.00    +0.085 C 
ATOM     36 C36  LIG A   1      -6.519  -0.918  -3.381  1.00 20.00    +0.311 C 
ATOM     37 O37  LIG A   1      -6.462  -2.137  -3.425  1.00 20.00    -0.252 OA
ATOM     38 O38  LIG A   1      -6.968  -0.241  -4.460  1.00 20.00    -0.481 OA
ATOM     39 C39  LIG A   1      -2.801   0.632   1.163  1.00 20.00    +0.246 C 
ATOM     40 O40  LIG A   1      -1.702   0.087   1.320  1.00 20.00    -0.273 OA
ATOM     41 C41  LIG A   1      -3.707   0.813   2.422  1.00 20.00    +0.088 C 
ATOM     42 N42  LIG A   1      -3.222   2.024   3.133  1.00 20.00    -0.320 NA
ATOM     43 N43  LIG A   1       3.161  -0.779  -0.193  1.00 20.00    -0.328 NA
ATOM     44 C44  LIG A   1       1.822  -0.327  -0.570  1.00 20.00    +0.016 C 
ATOM     45 C45  LIG A   1       1.092   0.401   0.568  1.00 20.00    +0.059 C 
ATOM     46 O46  LIG A   1      -0.163   0.931   0.141  1.00 20.00    -0.378 OA
ATOM     47 C47  LIG A   1      -1.209  -0.038   0.138  1.00 20.00    +0.070 C 
ATOM     48 C48  LIG A   1      -2.502   0.618  -0.337  1.00 20.00    +0.067 C 
ATOM     49 O49  LIG A   1      -3.589  -0.297  -0.275  1.00 20.00    -0.394 OA
ATOM     50 H50  LIG A   1      -4.270   0.725   5.171  1.00 20.00    +0.023 H 
ATOM     51 H51  LIG A   1      -5.628  -0.023   4.311  1.00 20.00    +0.023 H 
ATOM     52 H52  LIG A   1      -4.545  -1.006   5.313  1.00 20.00    +0.023 H 
ATOM     53 H53  LIG A   1      -2.658  -0.526   3.791  1.00 20.00    +0.032 H 
ATOM     54 H54  LIG A   1      -3.122  -2.387   2.654  1.00 20.00    +0.032 H 
ATOM     55 H55  LIG A   1      -4.650  -2.412   3.483  1.00 20.00    +0.032 H 
ATOM     56 H56  LIG A   1      -6.695  -1.187   2.274  1.00 20.00    +0.063 H 
ATOM     57 H57  LIG A   1      -7.585  -0.411   0.129  1.00 20.00    +0.063 H 
ATOM     58 H58  LIG A   1      -3.034  -2.371   0.352  1.00 20.00    +0.067 H 
ATOM     59 H59  LIG A   1      -1.838  -2.130  -2.206  1.00 20.00    +0.105 H 
ATOM     60 H60  LIG A   1       0.025  -1.866  -0.168  1.00 20.00    +0.063 H 
ATOM     61 H61  LIG A   1       2.465  -1.968  -0.260  1.00 20.00    +0.064 H 
ATOM     62 H62  LIG A   1       4.397  -1.354  -1.498  1.00 20.00    +0.160 HD
ATOM     63 H63  LIG A   1       4.643   0.132  -3.537  1.00 20.00    +0.049 H 
ATOM     64 H64  LIG A   1       4.705   1.474  -2.370  1.00 20.00    +0.049 H 
ATOM     65 H65  LIG A   1       6.940   0.597  -3.112  1.00 20.00    +0.030 H 
ATOM     66 H66  LIG A   1       6.597  -0.941  -2.339  1.00 20.00    +0.030 H 
ATOM     67 H67  LIG A   1       6.729   1.803  -0.971  1.00 20.00    +0.043 H 
ATOM     68 H68  LIG A   1       8.032   0.644  -0.971  1.00 20.00    +0.043 H 
ATOM     69 H69  LIG A   1       5.348   0.128   0.121  1.00 20.00    +0.122 HD
ATOM     70 H70  LIG A   1       6.160  -1.598   1.334  1.00 20.00    +0.043 H 
ATOM     71 H71  LIG A   1       6.773  -1.836  -0.286  1.00 20.00    +0.043 H 
ATOM     72 H72  LIG A   1       8.969  -0.694   0.499  1.00 20.00    +0.028 H 
ATOM     73 H73  LIG A   1       8.589  -2.276   1.135  1.00 20.00    +0.028 H 
ATOM     74 H74  LIG A   1       9.467  -0.904   2.884  1.00 20.00    +0.028 H 
ATOM     75 H75  LIG A   1       7.811  -1.357   3.257  1.00 20.00    +0.028 H 
ATOM     76 H76  LIG A   1       8.585   1.372   2.078  1.00 20.00    +0.043 H 
ATOM     77 H77  LIG A   1       6.995   0.898   2.710  1.00 20.00    +0.043 H 
ATOM     78 H78  LIG A   1       8.243   2.132   4.288  1.00 20.00    +0.118 HD
ATOM     79 H79  LIG A   1       9.474   1.062   4.260  1.00 20.00    +0.118 HD
ATOM     80 H80  LIG A   1       2.500   1.458  -2.870  1.00 20.00    +0.064 H 
ATOM     81 H81  LIG A   1       0.083   1.541  -2.808  1.00 20.00    +0.063 H 
ATOM     82 H82  LIG A   1      -5.221   1.617   0.426  1.00 20.00    +0.050 H 
ATOM     83 H83  LIG A   1      -4.126   2.968   0.264  1.00 20.00    +0.050 H 
ATOM     84 H84  LIG A   1      -4.418   3.042  -2.080  1.00 20.00    +0.029 H 
ATOM     85 H85  LIG A   1      -5.997   2.784  -1.406  1.00 20.00    +0.029 H 
ATOM     86 H86  LIG A   1      -5.680   1.631  -3.481  1.00 20.00    +0.028 H 
ATOM     87 H87  LIG A   1      -4.302   0.758  -2.936  1.00 20.00    +0.028 H 
ATOM     88 H88  LIG A   1      -7.188   0.451  -1.944  1.00 20.00    +0.047 H 
ATOM     89 H89  LIG A   1      -7.133  -0.948  -5.119  1.00 20.00    +0.296 HD
ATOM     90 H90  LIG A   1      -4.746   0.999   2.162  1.00 20.00    +0.057 H 
ATOM     91 H91  LIG A   1      -2.273   1.833   3.471  1.00 20.00    +0.119 HD
ATOM     92 H92  LIG A   1      -3.114   2.795   2.473  1.00 20.00    +0.119 HD
ATOM     93 H93  LIG A   1       3.731   0.024   0.073  1.00 20.00    +0.118 HD
ATOM     94 H94  LIG A   1       3.108  -1.377   0.630  1.00 20.00    +0.118 HD
ATOM     95 H95  LIG A   1       1.896   0.334  -1.440  1.00 20.00    +0.045 H 
ATOM     96 H96  LIG A   1       1.240  -1.194  -0.899  1.00 20.00    +0.045 H 
ATOM     97 H97  LIG A   1       1.698   1.255   0.894  1.00 20.00    +0.058 H 
ATOM     98 H98  LIG A   1       0.957  -0.250   1.441  1.00 20.00    +0.058 H 
ATOM     99 H99  LIG A   1      -0.964  -0.876  -0.522  1.00 20.00    +0.059 H 
ATOM    100 H100 LIG A   1      -1.349  -0.439   1.149  1.00 20.00    +0.059 H 
ATOM    101 H101 LIG A   1      -2.395   0.960  -1.372  1.00 20.00    +0.059 H 
ATOM    102 H102 LIG A   1      -2.742   1.500   0.267  1.00 20.00    +0.059 H 
ATOM    103 H103 LIG A   1      -3.791  -0.444   0.665  1.00 20.00    +0.210 HD
ENDROOT
TORSDOF 0
