ROOT
ATOM      1 C1   LIG A   1      -5.420   1.527   4.271  1.00 20.00    -0.060 C 
ATOM      2 C2   LIG A   1      -4.307   0.990   3.349  1.00 20.00    -0.016 C 
ATOM      3 C3   LIG A   1      -4.388  -0.575   3.333  1.00 20.00    -0.023 C 
ATOM      4 C4   LIG A   1      -4.873  -1.162   2.032  1.00 20.00    -0.044 A 
ATOM      5 C5   LIG A   1      -6.206  -1.033   1.638  1.00 20.00    -0.058 A 
ATOM      6 C6   LIG A   1      -6.546  -1.175   0.294  1.00 20.00    -0.054 A 
ATOM      7 C7   LIG A   1      -5.549  -1.410  -0.670  1.00 20.00    +0.009 A 
ATOM      8 C8   LIG A   1      -4.240  -1.692  -0.234  1.00 20.00    +0.130 A 
ATOM      9 C9   LIG A   1      -3.925  -1.639   1.122  1.00 20.00    -0.016 A 
ATOM     10 O10  LIG A   1      -3.274  -1.907  -1.189  1.00 20.00    -0.464 OA
ATOM     11 C11  LIG A   1      -1.990  -1.451  -0.975  1.00 20.00    +0.104 C 
ATOM     12 C12  LIG A   1      -1.517  -0.186  -1.047  1.00 20.00    +0.082 C 
ATOM     13 C13  LIG A   1      -0.046   0.028  -1.084  1.00 20.00    -0.010 A 
ATOM     14 C14  LIG A   1       0.793  -0.797  -1.847  1.00 20.00    -0.052 A 
ATOM     15 C15  LIG A   1       2.175  -0.571  -1.895  1.00 20.00    -0.038 A 
ATOM     16 C16  LIG A   1       2.764   0.511  -1.230  1.00 20.00    +0.034 A 
ATOM     17 N17  LIG A   1       4.159   0.644  -1.275  1.00 20.00    -0.385 NA
ATOM     18 C18  LIG A   1       4.747   1.969  -1.072  1.00 20.00    +0.016 C 
ATOM     19 C19  LIG A   1       6.274   1.888  -1.191  1.00 20.00    -0.023 C 
ATOM     20 C20  LIG A   1       6.955   1.267   0.037  1.00 20.00    -0.003 C 
ATOM     21 N21  LIG A   1       6.557  -0.110   0.335  1.00 20.00    -0.317 NA
ATOM     22 C22  LIG A   1       7.198  -1.119  -0.507  1.00 20.00    -0.005 C 
ATOM     23 C23  LIG A   1       8.658  -1.415  -0.148  1.00 20.00    -0.039 C 
ATOM     24 C24  LIG A   1       8.873  -2.180   1.165  1.00 20.00    -0.040 C 
ATOM     25 C25  LIG A   1       8.456  -1.418   2.422  1.00 20.00    -0.008 C 
ATOM     26 N26  LIG A   1       8.929  -2.123   3.615  1.00 20.00    -0.330 NA
ATOM     27 C27  LIG A   1       1.931   1.313  -0.448  1.00 20.00    -0.038 A 
ATOM     28 C28  LIG A   1       0.547   1.088  -0.389  1.00 20.00    -0.052 A 
ATOM     29 C29  LIG A   1      -2.433   0.994  -1.264  1.00 20.00    +0.264 C 
ATOM     30 O30  LIG A   1      -2.206   1.790  -2.177  1.00 20.00    -0.268 OA
ATOM     31 N31  LIG A   1      -3.508   1.141  -0.396  1.00 20.00    -0.277 NA
ATOM     32 C32  LIG A   1      -4.742   1.684  -0.972  1.00 20.00    +0.029 C 
ATOM     33 C33  LIG A   1      -5.140   1.286  -2.411  1.00 20.00    -0.034 C 
ATOM     34 C34  LIG A   1      -5.052  -0.179  -2.879  1.00 20.00    -0.034 C 
ATOM     35 C35  LIG A   1      -5.902  -1.248  -2.142  1.00 20.00    +0.085 C 
ATOM     36 C36  LIG A   1      -5.865  -2.591  -2.872  1.00 20.00    +0.311 C 
ATOM     37 O37  LIG A   1      -5.721  -3.702  -2.388  1.00 20.00    -0.252 OA
ATOM     38 O38  LIG A   1      -6.099  -2.480  -4.198  1.00 20.00    -0.481 OA
ATOM     39 C39  LIG A   1      -3.225   1.254   0.977  1.00 20.00    +0.246 C 
ATOM     40 O40  LIG A   1      -2.104   1.039   1.452  1.00 20.00    -0.273 OA
ATOM     41 C41  LIG A   1      -4.351   1.718   1.956  1.00 20.00    +0.088 C 
ATOM     42 N42  LIG A   1      -4.181   3.181   2.149  1.00 20.00    -0.320 NA
ATOM     43 C43  LIG A   1      -3.217   0.910  -0.027  1.00 20.00    -0.048 C 
ATOM     44 C44  LIG A   1      -2.222  -0.228   0.129  1.00 20.00    +0.015 C 
ATOM     45 N45  LIG A   1      -0.866   0.273  -0.031  1.00 20.00    -0.357 NA
ATOM     46 C46  LIG A   1       0.244  -0.523  -0.013  1.00 20.00    +0.195 C 
ATOM     47 N47  LIG A   1       0.236  -1.812   0.042  1.00 20.00    -0.269 NA
ATOM     48 N48  LIG A   1       1.402   0.195  -0.078  1.00 20.00    -0.298 NA
ATOM     49 C49  LIG A   1       2.703  -0.170   0.033  1.00 20.00    +0.192 C 
ATOM     50 N50  LIG A   1       3.156  -1.341   0.311  1.00 20.00    -0.269 NA
ATOM     51 N51  LIG A   1       3.585   0.839  -0.164  1.00 20.00    -0.370 NA
ATOM     52 H52  LIG A   1      -5.318   2.603   4.445  1.00 20.00    +0.023 H 
ATOM     53 H53  LIG A   1      -6.411   1.343   3.843  1.00 20.00    +0.023 H 
ATOM     54 H54  LIG A   1      -5.379   1.042   5.253  1.00 20.00    +0.023 H 
ATOM     55 H55  LIG A   1      -3.356   1.242   3.840  1.00 20.00    +0.032 H 
ATOM     56 H56  LIG A   1      -3.385  -0.969   3.552  1.00 20.00    +0.032 H 
ATOM     57 H57  LIG A   1      -5.020  -0.953   4.147  1.00 20.00    +0.032 H 
ATOM     58 H58  LIG A   1      -6.966  -0.719   2.351  1.00 20.00    +0.063 H 
ATOM     59 H59  LIG A   1      -7.577  -0.999  -0.005  1.00 20.00    +0.063 H 
ATOM     60 H60  LIG A   1      -2.899  -1.797   1.450  1.00 20.00    +0.067 H 
ATOM     61 H61  LIG A   1      -1.345  -2.318  -0.869  1.00 20.00    +0.105 H 
ATOM     62 H62  LIG A   1       0.388  -1.621  -2.428  1.00 20.00    +0.063 H 
ATOM     63 H63  LIG A   1       2.791  -1.252  -2.479  1.00 20.00    +0.064 H 
ATOM     64 H64  LIG A   1       4.527   0.197  -2.114  1.00 20.00    +0.160 HD
ATOM     65 H65  LIG A   1       4.369   2.653  -1.841  1.00 20.00    +0.049 H 
ATOM     66 H66  LIG A   1       4.488   2.378  -0.090  1.00 20.00    +0.049 H 
ATOM     67 H67  LIG A   1       6.660   2.910  -1.301  1.00 20.00    +0.030 H 
ATOM     68 H68  LIG A   1       6.560   1.349  -2.103  1.00 20.00    +0.030 H 
ATOM     69 H69  LIG A   1       6.698   1.875   0.914  1.00 20.00    +0.043 H 
ATOM     70 H70  LIG A   1       8.042   1.352  -0.068  1.00 20.00    +0.043 H 
ATOM     71 H71  LIG A   1       5.539  -0.175   0.190  1.00 20.00    +0.122 HD
ATOM     72 H72  LIG A   1       6.627  -2.051  -0.409  1.00 20.00    +0.043 H 
ATOM     73 H73  LIG A   1       7.128  -0.837  -1.564  1.00 20.00    +0.043 H 
ATOM     74 H74  LIG A   1       9.255  -0.496  -0.139  1.00 20.00    +0.028 H 
ATOM     75 H75  LIG A   1       9.074  -2.033  -0.955  1.00 20.00    +0.028 H 
ATOM     76 H76  LIG A   1       9.942  -2.422   1.228  1.00 20.00    +0.028 H 
ATOM     77 H77  LIG A   1       8.341  -3.140   1.123  1.00 20.00    +0.028 H 
ATOM     78 H78  LIG A   1       8.870  -0.404   2.416  1.00 20.00    +0.043 H 
ATOM     79 H79  LIG A   1       7.367  -1.346   2.485  1.00 20.00    +0.043 H 
ATOM     80 H80  LIG A   1       8.652  -1.591   4.439  1.00 20.00    +0.118 HD
ATOM     81 H81  LIG A   1       9.948  -2.139   3.614  1.00 20.00    +0.118 HD
ATOM     82 H82  LIG A   1       2.331   2.132   0.142  1.00 20.00    +0.064 H 
ATOM     83 H83  LIG A   1      -0.056   1.754   0.225  1.00 20.00    +0.063 H 
ATOM     84 H84  LIG A   1      -5.589   1.415  -0.342  1.00 20.00    +0.050 H 
ATOM     85 H85  LIG A   1      -4.664   2.778  -0.924  1.00 20.00    +0.050 H 
ATOM     86 H86  LIG A   1      -4.537   1.881  -3.108  1.00 20.00    +0.029 H 
ATOM     87 H87  LIG A   1      -6.171   1.630  -2.570  1.00 20.00    +0.029 H 
ATOM     88 H88  LIG A   1      -5.378  -0.163  -3.928  1.00 20.00    +0.028 H 
ATOM     89 H89  LIG A   1      -4.005  -0.484  -2.946  1.00 20.00    +0.028 H 
ATOM     90 H90  LIG A   1      -6.950  -0.924  -2.206  1.00 20.00    +0.047 H 
ATOM     91 H91  LIG A   1      -6.063  -3.407  -4.516  1.00 20.00    +0.296 HD
ATOM     92 H92  LIG A   1      -5.345   1.569   1.543  1.00 20.00    +0.057 H 
ATOM     93 H93  LIG A   1      -3.276   3.340   2.599  1.00 20.00    +0.119 HD
ATOM     94 H94  LIG A   1      -4.116   3.647   1.244  1.00 20.00    +0.119 HD
ATOM     95 H95  LIG A   1      -3.054   1.683   0.732  1.00 20.00    +0.025 H 
ATOM     96 H96  LIG A   1      -3.122   1.381  -1.011  1.00 20.00    +0.025 H 
ATOM     97 H97  LIG A   1      -4.240   0.538   0.079  1.00 20.00    +0.025 H 
ATOM     98 H98  LIG A   1      -2.335  -0.682   1.120  1.00 20.00    +0.049 H 
ATOM     99 H99  LIG A   1      -2.433  -0.991  -0.627  1.00 20.00    +0.049 H 
ATOM    100 H100 LIG A   1      -0.731   1.162   0.438  1.00 20.00    +0.163 HD
ATOM    101 H101 LIG A   1      -0.721  -2.160   0.065  1.00 20.00    +0.191 HD
ATOM    102 H102 LIG A   1       1.283   1.181  -0.231  1.00 20.00    +0.173 HD
ATOM    103 H103 LIG A   1       2.312  -1.942   0.400  1.00 20.00    +0.191 HD
ATOM    104 H104 LIG A   1       4.519   0.441  -0.078  1.00 20.00    +0.159 HD
ATOM    105 H105 LIG A   1       3.502   1.245  -1.088  1.00 20.00    +0.159 HD
ENDROOT
TORSDOF 0
