ROOT
ATOM      1 N1   LIG A   1     -14.220   0.781  -1.702  1.00 20.00    -0.330 NA
ATOM      2 C2   LIG A   1     -13.006   1.246  -2.365  1.00 20.00    -0.008 C 
ATOM      3 C3   LIG A   1     -11.845   0.283  -2.125  1.00 20.00    -0.040 C 
ATOM      4 C4   LIG A   1     -10.571   0.771  -2.823  1.00 20.00    -0.039 C 
ATOM      5 C5   LIG A   1      -9.398  -0.202  -2.674  1.00 20.00    -0.005 C 
ATOM      6 N6   LIG A   1      -8.995  -0.332  -1.274  1.00 20.00    -0.317 NA
ATOM      7 C7   LIG A   1      -7.889  -1.286  -1.132  1.00 20.00    -0.003 C 
ATOM      8 C8   LIG A   1      -7.488  -1.393   0.342  1.00 20.00    -0.023 C 
ATOM      9 C9   LIG A   1      -6.430  -2.472   0.572  1.00 20.00    +0.016 C 
ATOM     10 N10  LIG A   1      -5.172  -2.145  -0.093  1.00 20.00    -0.385 NA
ATOM     11 C11  LIG A   1      -4.144  -1.482   0.581  1.00 20.00    +0.034 A 
ATOM     12 C12  LIG A   1      -4.330  -0.708   1.729  1.00 20.00    -0.038 A 
ATOM     13 C13  LIG A   1      -3.263  -0.020   2.327  1.00 20.00    -0.049 A 
ATOM     14 C14  LIG A   1      -1.977  -0.061   1.777  1.00 20.00    +0.017 A 
ATOM     15 C15  LIG A   1      -0.866   0.643   2.415  1.00 20.00    +0.134 A 
ATOM     16 C16  LIG A   1      -0.731   1.404   3.559  1.00 20.00    -0.015 A 
ATOM     17 C17  LIG A   1       0.630   1.792   3.634  1.00 20.00    -0.015 A 
ATOM     18 C18  LIG A   1       1.258   1.254   2.528  1.00 20.00    +0.134 A 
ATOM     19 C19  LIG A   1       2.628   1.267   2.022  1.00 20.00    +0.017 A 
ATOM     20 C20  LIG A   1       3.685   1.703   2.828  1.00 20.00    -0.049 A 
ATOM     21 C21  LIG A   1       5.004   1.714   2.349  1.00 20.00    -0.038 A 
ATOM     22 C22  LIG A   1       5.308   1.323   1.043  1.00 20.00    +0.034 A 
ATOM     23 N23  LIG A   1       6.598   1.245   0.529  1.00 20.00    -0.385 NA
ATOM     24 C24  LIG A   1       7.746   1.878   1.174  1.00 20.00    +0.016 C 
ATOM     25 C25  LIG A   1       8.432   0.916   2.147  1.00 20.00    -0.023 C 
ATOM     26 C26  LIG A   1       9.120  -0.262   1.448  1.00 20.00    -0.003 C 
ATOM     27 N27  LIG A   1      10.296   0.192   0.694  1.00 20.00    -0.317 NA
ATOM     28 C28  LIG A   1      10.901  -0.883  -0.094  1.00 20.00    -0.005 C 
ATOM     29 C29  LIG A   1      10.108  -1.262  -1.352  1.00 20.00    -0.039 C 
ATOM     30 C30  LIG A   1       9.902  -0.078  -2.306  1.00 20.00    -0.040 C 
ATOM     31 C31  LIG A   1       9.073  -0.431  -3.543  1.00 20.00    -0.008 C 
ATOM     32 N32  LIG A   1       9.726  -1.400  -4.416  1.00 20.00    -0.330 NA
ATOM     33 C33  LIG A   1       4.249   0.858   0.252  1.00 20.00    -0.038 A 
ATOM     34 C34  LIG A   1       2.931   0.838   0.726  1.00 20.00    -0.049 A 
ATOM     35 O35  LIG A   1       0.345   0.560   1.786  1.00 20.00    -0.456 OA
ATOM     36 C36  LIG A   1      -1.797  -0.795   0.601  1.00 20.00    -0.049 A 
ATOM     37 C37  LIG A   1      -2.866  -1.480   0.008  1.00 20.00    -0.038 A 
ATOM     38 O38  LIG A   1       3.474   0.968  -0.222  1.00 20.00    -0.251 OA
ATOM     39 C39  LIG A   1       2.349   0.906   0.248  1.00 20.00    +0.317 C 
ATOM     40 O40  LIG A   1       1.849   1.946   0.955  1.00 20.00    -0.480 OA
ATOM     41 C41  LIG A   1       1.423  -0.302   0.211  1.00 20.00    +0.094 C 
ATOM     42 N42  LIG A   1       0.011   0.123   0.170  1.00 20.00    -0.306 NA
ATOM     43 C43  LIG A   1      -0.889  -1.015   0.392  1.00 20.00    +0.005 C 
ATOM     44 C44  LIG A   1      -2.367  -0.603   0.327  1.00 20.00    +0.003 C 
ATOM     45 S45  LIG A   1      -2.835   0.016  -1.318  1.00 20.00    -0.178 SA
ATOM     46 H46  LIG A   1     -14.446  -0.157  -2.031  1.00 20.00    +0.118 HD
ATOM     47 H47  LIG A   1     -14.041   0.685  -0.702  1.00 20.00    +0.118 HD
ATOM     48 H48  LIG A   1     -12.756   2.244  -1.988  1.00 20.00    +0.043 H 
ATOM     49 H49  LIG A   1     -13.204   1.343  -3.438  1.00 20.00    +0.043 H 
ATOM     50 H50  LIG A   1     -12.106  -0.714  -2.501  1.00 20.00    +0.028 H 
ATOM     51 H51  LIG A   1     -11.667   0.185  -1.047  1.00 20.00    +0.028 H 
ATOM     52 H52  LIG A   1     -10.775   0.904  -3.893  1.00 20.00    +0.028 H 
ATOM     53 H53  LIG A   1     -10.289   1.757  -2.433  1.00 20.00    +0.028 H 
ATOM     54 H54  LIG A   1      -8.557   0.169  -3.272  1.00 20.00    +0.043 H 
ATOM     55 H55  LIG A   1      -9.689  -1.179  -3.078  1.00 20.00    +0.043 H 
ATOM     56 H56  LIG A   1      -8.695   0.579  -0.925  1.00 20.00    +0.122 HD
ATOM     57 H57  LIG A   1      -7.031  -0.958  -1.731  1.00 20.00    +0.043 H 
ATOM     58 H58  LIG A   1      -8.205  -2.271  -1.496  1.00 20.00    +0.043 H 
ATOM     59 H59  LIG A   1      -7.132  -0.419   0.698  1.00 20.00    +0.030 H 
ATOM     60 H60  LIG A   1      -8.372  -1.648   0.941  1.00 20.00    +0.030 H 
ATOM     61 H61  LIG A   1      -6.284  -2.650   1.644  1.00 20.00    +0.049 H 
ATOM     62 H62  LIG A   1      -6.797  -3.421   0.162  1.00 20.00    +0.049 H 
ATOM     63 H63  LIG A   1      -4.811  -2.918  -0.648  1.00 20.00    +0.160 HD
ATOM     64 H64  LIG A   1      -5.307  -0.622   2.194  1.00 20.00    +0.064 H 
ATOM     65 H65  LIG A   1      -3.463   0.553   3.229  1.00 20.00    +0.063 H 
ATOM     66 H66  LIG A   1      -1.514   1.647   4.263  1.00 20.00    +0.066 H 
ATOM     67 H67  LIG A   1       1.093   2.394   4.403  1.00 20.00    +0.066 H 
ATOM     68 H68  LIG A   1       3.506   2.026   3.851  1.00 20.00    +0.063 H 
ATOM     69 H69  LIG A   1       5.785   2.039   3.029  1.00 20.00    +0.064 H 
ATOM     70 H70  LIG A   1       6.626   1.315  -0.485  1.00 20.00    +0.160 HD
ATOM     71 H71  LIG A   1       8.453   2.186   0.395  1.00 20.00    +0.049 H 
ATOM     72 H72  LIG A   1       7.454   2.801   1.687  1.00 20.00    +0.049 H 
ATOM     73 H73  LIG A   1       9.170   1.472   2.738  1.00 20.00    +0.030 H 
ATOM     74 H74  LIG A   1       7.702   0.516   2.859  1.00 20.00    +0.030 H 
ATOM     75 H75  LIG A   1       9.439  -0.984   2.209  1.00 20.00    +0.043 H 
ATOM     76 H76  LIG A   1       8.398  -0.768   0.800  1.00 20.00    +0.043 H 
ATOM     77 H77  LIG A   1      10.989   0.536   1.360  1.00 20.00    +0.122 HD
ATOM     78 H78  LIG A   1      11.895  -0.546  -0.409  1.00 20.00    +0.043 H 
ATOM     79 H79  LIG A   1      11.060  -1.773   0.527  1.00 20.00    +0.043 H 
ATOM     80 H80  LIG A   1       9.137  -1.690  -1.080  1.00 20.00    +0.028 H 
ATOM     81 H81  LIG A   1      10.662  -2.057  -1.866  1.00 20.00    +0.028 H 
ATOM     82 H82  LIG A   1      10.876   0.321  -2.614  1.00 20.00    +0.028 H 
ATOM     83 H83  LIG A   1       9.383   0.732  -1.780  1.00 20.00    +0.028 H 
ATOM     84 H84  LIG A   1       8.093  -0.819  -3.244  1.00 20.00    +0.043 H 
ATOM     85 H85  LIG A   1       8.890   0.482  -4.120  1.00 20.00    +0.043 H 
ATOM     86 H86  LIG A   1      10.673  -1.086  -4.627  1.00 20.00    +0.118 HD
ATOM     87 H87  LIG A   1       9.823  -2.291  -3.933  1.00 20.00    +0.118 HD
ATOM     88 H88  LIG A   1       4.442   0.497  -0.755  1.00 20.00    +0.064 H 
ATOM     89 H89  LIG A   1       2.144   0.477   0.068  1.00 20.00    +0.063 H 
ATOM     90 H90  LIG A   1      -0.820  -0.843   0.125  1.00 20.00    +0.063 H 
ATOM     91 H91  LIG A   1      -2.683  -2.022  -0.916  1.00 20.00    +0.064 H 
ATOM     92 H92  LIG A   1       2.551   2.627   0.886  1.00 20.00    +0.296 HD
ATOM     93 H93  LIG A   1       1.655  -0.882  -0.688  1.00 20.00    +0.055 H 
ATOM     94 H94  LIG A   1       1.634  -0.900   1.104  1.00 20.00    +0.055 H 
ATOM     95 H95  LIG A   1      -0.125   0.833   0.895  1.00 20.00    +0.123 HD
ATOM     96 H96  LIG A   1      -0.695  -1.800  -0.350  1.00 20.00    +0.044 H 
ATOM     97 H97  LIG A   1      -0.697  -1.445   1.382  1.00 20.00    +0.044 H 
ATOM     98 H98  LIG A   1      -3.003  -1.462   0.564  1.00 20.00    +0.039 H 
ATOM     99 H99  LIG A   1      -2.576   0.179   1.065  1.00 20.00    +0.039 H 
ATOM    100 H100 LIG A   1      -1.760   0.810  -1.461  1.00 20.00    +0.102 HD
ENDROOT
TORSDOF 0
