MODEL 1
REMARK VINA RESULT:   -11.733      0.000      0.000
REMARK INTER + INTRA:         -11.733
REMARK INTER:                 -11.733
REMARK INTRA:                   0.000
REMARK UNBOUND:                 0.000
ROOT
ATOM      1 C1   LIG A   1      21.304  11.586   3.477  1.00 20.00    -0.060 C 
ATOM      2 C2   LIG A   1      20.876  13.009   3.880  1.00 20.00    -0.016 C 
ATOM      3 C3   LIG A   1      19.339  12.946   4.182  1.00 20.00    -0.023 C 
ATOM      4 C4   LIG A   1      18.798  14.178   4.854  1.00 20.00    -0.048 A 
ATOM      5 C5   LIG A   1      18.486  14.139   6.216  1.00 20.00    -0.058 A 
ATOM      6 C6   LIG A   1      18.498  15.317   6.953  1.00 20.00    -0.051 A 
ATOM      7 C7   LIG A   1      18.887  16.506   6.330  1.00 20.00    +0.017 A 
ATOM      8 C8   LIG A   1      18.872  16.577   4.931  1.00 20.00    -0.051 A 
ATOM      9 C9   LIG A   1      18.816  15.404   4.186  1.00 20.00    -0.058 A 
ATOM     10 C10  LIG A   1      19.548  17.569   7.115  1.00 20.00    +0.140 C 
ATOM     11 C11  LIG A   1      20.794  18.001   6.814  1.00 20.00    +0.047 C 
ATOM     12 C12  LIG A   1      21.823  17.321   5.962  1.00 20.00    +0.256 C 
ATOM     13 O13  LIG A   1      22.724  18.003   5.475  1.00 20.00    -0.269 OA
ATOM     14 N14  LIG A   1      21.896  15.942   6.133  1.00 20.00    -0.278 NA
ATOM     15 C15  LIG A   1      22.741  15.475   7.243  1.00 20.00    +0.029 C 
ATOM     16 C16  LIG A   1      22.549  16.161   8.618  1.00 20.00    -0.034 C 
ATOM     17 C17  LIG A   1      21.235  15.755   9.293  1.00 20.00    -0.034 C 
ATOM     18 C18  LIG A   1      20.756  16.668  10.438  1.00 20.00    +0.085 C 
ATOM     19 C19  LIG A   1      19.561  16.003  11.108  1.00 20.00    +0.311 C 
ATOM     20 O20  LIG A   1      18.465  15.776  10.618  1.00 20.00    -0.252 OA
ATOM     21 O21  LIG A   1      19.822  15.618  12.377  1.00 20.00    -0.481 OA
ATOM     22 C22  LIG A   1      20.461  18.141  10.166  1.00 20.00    +0.009 A 
ATOM     23 C23  LIG A   1      21.112  19.079  10.990  1.00 20.00    -0.052 A 
ATOM     24 C24  LIG A   1      20.856  20.455  10.899  1.00 20.00    -0.038 A 
ATOM     25 C25  LIG A   1      19.904  20.959  10.014  1.00 20.00    +0.038 A 
ATOM     26 N26  LIG A   1      19.646  22.314   9.834  1.00 20.00    -0.385 NA
ATOM     27 C27  LIG A   1      20.055  23.333  10.792  1.00 20.00    +0.016 C 
ATOM     28 C28  LIG A   1      19.168  23.325  12.036  1.00 20.00    -0.023 C 
ATOM     29 C29  LIG A   1      19.608  24.413  13.018  1.00 20.00    -0.003 C 
ATOM     30 N30  LIG A   1      18.712  24.437  14.173  1.00 20.00    -0.317 NA
ATOM     31 C31  LIG A   1      19.134  25.404  15.188  1.00 20.00    -0.005 C 
ATOM     32 C32  LIG A   1      18.052  26.467  15.415  1.00 20.00    -0.039 C 
ATOM     33 C33  LIG A   1      17.794  27.398  14.222  1.00 20.00    -0.040 C 
ATOM     34 C34  LIG A   1      18.993  28.238  13.774  1.00 20.00    -0.008 C 
ATOM     35 N35  LIG A   1      19.459  29.162  14.806  1.00 20.00    -0.330 NA
ATOM     36 C36  LIG A   1      19.278  20.041   9.168  1.00 20.00    +0.004 A 
ATOM     37 C37  LIG A   1      19.554  18.662   9.226  1.00 20.00    +0.133 A 
ATOM     38 O38  LIG A   1      18.879  17.897   8.298  1.00 20.00    -0.456 OA
ATOM     39 C39  LIG A   1      21.821  15.205   4.943  1.00 20.00    +0.246 C 
ATOM     40 O40  LIG A   1      21.780  15.750   3.833  1.00 20.00    -0.273 OA
ATOM     41 C41  LIG A   1      21.761  13.630   5.042  1.00 20.00    +0.088 C 
ATOM     42 N42  LIG A   1      23.157  13.139   4.960  1.00 20.00    -0.320 NA
ATOM     43 N43  LIG A   1      20.455  16.820   6.822  1.00 20.00    -0.328 NA
ATOM     44 C44  LIG A   1      20.712  17.891   7.784  1.00 20.00    +0.016 C 
ATOM     45 C45  LIG A   1      20.002  17.675   9.129  1.00 20.00    +0.059 C 
ATOM     46 O46  LIG A   1      20.385  18.649  10.100  1.00 20.00    -0.378 OA
ATOM     47 C47  LIG A   1      19.710  19.895   9.946  1.00 20.00    +0.070 C 
ATOM     48 C48  LIG A   1      20.167  20.854  11.042  1.00 20.00    +0.067 C 
ATOM     49 O49  LIG A   1      19.457  22.085  10.970  1.00 20.00    -0.394 OA
ATOM     50 H50  LIG A   1      22.311  11.581   3.045  1.00 20.00    +0.023 H 
ATOM     51 H51  LIG A   1      20.632  11.180   2.712  1.00 20.00    +0.023 H 
ATOM     52 H52  LIG A   1      21.287  10.905   4.335  1.00 20.00    +0.023 H 
ATOM     53 H53  LIG A   1      21.001  13.629   2.985  1.00 20.00    +0.032 H 
ATOM     54 H54  LIG A   1      19.127  12.070   4.809  1.00 20.00    +0.032 H 
ATOM     55 H55  LIG A   1      18.788  12.783   3.246  1.00 20.00    +0.032 H 
ATOM     56 H56  LIG A   1      18.370  13.192   6.739  1.00 20.00    +0.063 H 
ATOM     57 H57  LIG A   1      18.367  15.263   8.031  1.00 20.00    +0.063 H 
ATOM     58 H58  LIG A   1      19.096  17.511   4.415  1.00 20.00    +0.063 H 
ATOM     59 H59  LIG A   1      19.001  15.454   3.114  1.00 20.00    +0.063 H 
ATOM     60 H60  LIG A   1      21.245  18.833   7.348  1.00 20.00    +0.072 H 
ATOM     61 H61  LIG A   1      23.780  15.635   6.927  1.00 20.00    +0.050 H 
ATOM     62 H62  LIG A   1      22.613  14.397   7.380  1.00 20.00    +0.050 H 
ATOM     63 H63  LIG A   1      22.645  17.246   8.531  1.00 20.00    +0.029 H 
ATOM     64 H64  LIG A   1      23.373  15.848   9.272  1.00 20.00    +0.029 H 
ATOM     65 H65  LIG A   1      20.454  15.642   8.556  1.00 20.00    +0.028 H 
ATOM     66 H66  LIG A   1      21.371  14.740   9.693  1.00 20.00    +0.028 H 
ATOM     67 H67  LIG A   1      21.573  16.632  11.175  1.00 20.00    +0.047 H 
ATOM     68 H68  LIG A   1      18.975  15.232  12.684  1.00 20.00    +0.296 HD
ATOM     69 H69  LIG A   1      21.836  18.750  11.735  1.00 20.00    +0.063 H 
ATOM     70 H70  LIG A   1      21.415  21.116  11.554  1.00 20.00    +0.064 H 
ATOM     71 H71  LIG A   1      18.736  22.496   9.414  1.00 20.00    +0.160 HD
ATOM     72 H72  LIG A   1      19.958  24.307  10.296  1.00 20.00    +0.049 H 
ATOM     73 H73  LIG A   1      21.114  23.236  11.049  1.00 20.00    +0.049 H 
ATOM     74 H74  LIG A   1      19.210  22.346  12.527  1.00 20.00    +0.030 H 
ATOM     75 H75  LIG A   1      18.124  23.483  11.743  1.00 20.00    +0.030 H 
ATOM     76 H76  LIG A   1      20.638  24.215  13.334  1.00 20.00    +0.043 H 
ATOM     77 H77  LIG A   1      19.585  25.386  12.514  1.00 20.00    +0.043 H 
ATOM     78 H78  LIG A   1      18.670  23.504  14.588  1.00 20.00    +0.122 HD
ATOM     79 H79  LIG A   1      20.097  25.871  14.951  1.00 20.00    +0.043 H 
ATOM     80 H80  LIG A   1      19.289  24.866  16.132  1.00 20.00    +0.043 H 
ATOM     81 H81  LIG A   1      18.321  27.060  16.299  1.00 20.00    +0.028 H 
ATOM     82 H82  LIG A   1      17.108  25.968  15.673  1.00 20.00    +0.028 H 
ATOM     83 H83  LIG A   1      16.963  28.068  14.482  1.00 20.00    +0.028 H 
ATOM     84 H84  LIG A   1      17.446  26.806  13.366  1.00 20.00    +0.028 H 
ATOM     85 H85  LIG A   1      18.707  28.825  12.892  1.00 20.00    +0.043 H 
ATOM     86 H86  LIG A   1      19.828  27.601  13.464  1.00 20.00    +0.043 H 
ATOM     87 H87  LIG A   1      19.736  28.648  15.640  1.00 20.00    +0.118 HD
ATOM     88 H88  LIG A   1      18.689  29.769  15.089  1.00 20.00    +0.118 HD
ATOM     89 H89  LIG A   1      18.567  20.392   8.421  1.00 20.00    +0.068 H 
ATOM     90 H90  LIG A   1      21.339  13.336   6.007  1.00 20.00    +0.057 H 
ATOM     91 H91  LIG A   1      23.770  13.631   5.602  1.00 20.00    +0.119 HD
ATOM     92 H92  LIG A   1      23.193  12.152   5.207  1.00 20.00    +0.119 HD
ATOM     93 H93  LIG A   1      20.764  15.930   7.212  1.00 20.00    +0.118 HD
ATOM     94 H94  LIG A   1      19.453  16.730   6.662  1.00 20.00    +0.118 HD
ATOM     95 H95  LIG A   1      21.793  17.978   7.949  1.00 20.00    +0.045 H 
ATOM     96 H96  LIG A   1      20.400  18.843   7.340  1.00 20.00    +0.045 H 
ATOM     97 H97  LIG A   1      20.295  16.700   9.536  1.00 20.00    +0.058 H 
ATOM     98 H98  LIG A   1      18.911  17.661   9.009  1.00 20.00    +0.058 H 
ATOM     99 H99  LIG A   1      19.921  20.336   8.966  1.00 20.00    +0.059 H 
ATOM    100 H100 LIG A   1      18.626  19.744  10.016  1.00 20.00    +0.059 H 
ATOM    101 H101 LIG A   1      21.237  21.064  10.938  1.00 20.00    +0.059 H 
ATOM    102 H102 LIG A   1      20.023  20.415  12.034  1.00 20.00    +0.059 H 
ATOM    103 H103 LIG A   1      18.534  21.904  11.221  1.00 20.00    +0.210 HD
ENDROOT
TORSDOF 0
                                                                                                          
ENDMDL
MODEL 2
REMARK VINA RESULT:   -11.618      3.385      5.763
REMARK INTER + INTRA:         -11.618
REMARK INTER:                 -11.618
REMARK INTRA:                   0.000
REMARK UNBOUND:                 0.000
ROOT
ATOM      1 C1   LIG A   1      23.491  17.566   5.210  1.00 20.00    -0.060 C 
ATOM      2 C2   LIG A   1      22.447  18.391   5.985  1.00 20.00    -0.016 C 
ATOM      3 C3   LIG A   1      21.817  17.430   7.051  1.00 20.00    -0.023 C 
ATOM      4 C4   LIG A   1      20.974  18.129   8.081  1.00 20.00    -0.048 A 
ATOM      5 C5   LIG A   1      21.473  18.307   9.375  1.00 20.00    -0.058 A 
ATOM      6 C6   LIG A   1      20.991  19.351  10.154  1.00 20.00    -0.051 A 
ATOM      7 C7   LIG A   1      20.066  20.242   9.603  1.00 20.00    +0.017 A 
ATOM      8 C8   LIG A   1      19.353  19.861   8.459  1.00 20.00    -0.051 A 
ATOM      9 C9   LIG A   1      19.804  18.788   7.697  1.00 20.00    -0.058 A 
ATOM     10 C10  LIG A   1      20.032  21.648  10.058  1.00 20.00    +0.140 C 
ATOM     11 C11  LIG A   1      20.247  22.674   9.203  1.00 20.00    +0.047 C 
ATOM     12 C12  LIG A   1      20.875  22.623   7.843  1.00 20.00    +0.256 C 
ATOM     13 O13  LIG A   1      20.643  23.539   7.055  1.00 20.00    -0.269 OA
ATOM     14 N14  LIG A   1      21.969  21.768   7.742  1.00 20.00    -0.278 NA
ATOM     15 C15  LIG A   1      23.267  22.333   8.143  1.00 20.00    +0.029 C 
ATOM     16 C16  LIG A   1      23.323  23.096   9.489  1.00 20.00    -0.034 C 
ATOM     17 C17  LIG A   1      23.229  22.156  10.695  1.00 20.00    -0.034 C 
ATOM     18 C18  LIG A   1      22.865  22.817  12.039  1.00 20.00    +0.085 C 
ATOM     19 C19  LIG A   1      23.014  21.774  13.138  1.00 20.00    +0.311 C 
ATOM     20 O20  LIG A   1      22.364  20.751  13.285  1.00 20.00    -0.252 OA
ATOM     21 O21  LIG A   1      24.019  22.062  13.996  1.00 20.00    -0.481 OA
ATOM     22 C22  LIG A   1      21.540  23.561  12.187  1.00 20.00    +0.009 A 
ATOM     23 C23  LIG A   1      21.608  24.885  12.662  1.00 20.00    -0.052 A 
ATOM     24 C24  LIG A   1      20.457  25.642  12.927  1.00 20.00    -0.038 A 
ATOM     25 C25  LIG A   1      19.181  25.099  12.776  1.00 20.00    +0.038 A 
ATOM     26 N26  LIG A   1      18.002  25.813  12.964  1.00 20.00    -0.385 NA
ATOM     27 C27  LIG A   1      17.947  27.075  13.691  1.00 20.00    +0.016 C 
ATOM     28 C28  LIG A   1      18.064  26.861  15.200  1.00 20.00    -0.023 C 
ATOM     29 C29  LIG A   1      17.988  28.198  15.940  1.00 20.00    -0.003 C 
ATOM     30 N30  LIG A   1      18.036  27.974  17.385  1.00 20.00    -0.317 NA
ATOM     31 C31  LIG A   1      18.051  29.225  18.144  1.00 20.00    -0.005 C 
ATOM     32 C32  LIG A   1      16.832  29.320  19.069  1.00 20.00    -0.039 C 
ATOM     33 C33  LIG A   1      15.479  29.435  18.354  1.00 20.00    -0.040 C 
ATOM     34 C34  LIG A   1      15.312  30.669  17.463  1.00 20.00    -0.008 C 
ATOM     35 N35  LIG A   1      15.389  31.923  18.206  1.00 20.00    -0.330 NA
ATOM     36 C36  LIG A   1      19.102  23.798  12.273  1.00 20.00    +0.004 A 
ATOM     37 C37  LIG A   1      20.250  23.043  11.970  1.00 20.00    +0.133 A 
ATOM     38 O38  LIG A   1      19.999  21.791  11.448  1.00 20.00    -0.456 OA
ATOM     39 C39  LIG A   1      21.892  20.851   6.685  1.00 20.00    +0.246 C 
ATOM     40 O40  LIG A   1      20.966  20.867   5.865  1.00 20.00    -0.273 OA
ATOM     41 C41  LIG A   1      23.020  19.751   6.567  1.00 20.00    +0.088 C 
ATOM     42 N42  LIG A   1      24.070  20.303   5.678  1.00 20.00    -0.320 NA
ATOM     43 N43  LIG A   1      20.906  21.637   9.217  1.00 20.00    -0.328 NA
ATOM     44 C44  LIG A   1      20.735  22.836  10.036  1.00 20.00    +0.016 C 
ATOM     45 C45  LIG A   1      21.140  22.625  11.503  1.00 20.00    +0.059 C 
ATOM     46 O46  LIG A   1      21.109  23.843  12.248  1.00 20.00    -0.378 OA
ATOM     47 C47  LIG A   1      19.798  24.215  12.666  1.00 20.00    +0.070 C 
ATOM     48 C48  LIG A   1      19.875  25.508  13.473  1.00 20.00    +0.067 C 
ATOM     49 O49  LIG A   1      18.595  25.872  13.976  1.00 20.00    -0.394 OA
ATOM     50 H50  LIG A   1      23.827  18.094   4.311  1.00 20.00    +0.023 H 
ATOM     51 H51  LIG A   1      23.063  16.614   4.876  1.00 20.00    +0.023 H 
ATOM     52 H52  LIG A   1      24.364  17.342   5.832  1.00 20.00    +0.023 H 
ATOM     53 H53  LIG A   1      21.655  18.633   5.265  1.00 20.00    +0.032 H 
ATOM     54 H54  LIG A   1      22.617  16.873   7.557  1.00 20.00    +0.032 H 
ATOM     55 H55  LIG A   1      21.202  16.674   6.545  1.00 20.00    +0.032 H 
ATOM     56 H56  LIG A   1      22.325  17.734   9.731  1.00 20.00    +0.063 H 
ATOM     57 H57  LIG A   1      21.464  19.553  11.112  1.00 20.00    +0.063 H 
ATOM     58 H58  LIG A   1      18.570  20.498   8.048  1.00 20.00    +0.063 H 
ATOM     59 H59  LIG A   1      19.365  18.622   6.715  1.00 20.00    +0.063 H 
ATOM     60 H60  LIG A   1      20.148  23.706   9.528  1.00 20.00    +0.072 H 
ATOM     61 H61  LIG A   1      23.556  23.031   7.347  1.00 20.00    +0.050 H 
ATOM     62 H62  LIG A   1      24.024  21.545   8.167  1.00 20.00    +0.050 H 
ATOM     63 H63  LIG A   1      22.566  23.883   9.525  1.00 20.00    +0.029 H 
ATOM     64 H64  LIG A   1      24.287  23.617   9.545  1.00 20.00    +0.029 H 
ATOM     65 H65  LIG A   1      22.549  21.343  10.485  1.00 20.00    +0.028 H 
ATOM     66 H66  LIG A   1      24.206  21.663  10.805  1.00 20.00    +0.028 H 
ATOM     67 H67  LIG A   1      23.668  23.550  12.207  1.00 20.00    +0.047 H 
ATOM     68 H68  LIG A   1      23.986  21.331  14.648  1.00 20.00    +0.296 HD
ATOM     69 H69  LIG A   1      22.573  25.357  12.844  1.00 20.00    +0.063 H 
ATOM     70 H70  LIG A   1      20.593  26.663  13.268  1.00 20.00    +0.064 H 
ATOM     71 H71  LIG A   1      17.195  25.215  13.130  1.00 20.00    +0.160 HD
ATOM     72 H72  LIG A   1      16.975  27.535  13.475  1.00 20.00    +0.049 H 
ATOM     73 H73  LIG A   1      18.698  27.780  13.323  1.00 20.00    +0.049 H 
ATOM     74 H74  LIG A   1      19.009  26.360  15.441  1.00 20.00    +0.030 H 
ATOM     75 H75  LIG A   1      17.262  26.197  15.540  1.00 20.00    +0.030 H 
ATOM     76 H76  LIG A   1      18.822  28.833  15.622  1.00 20.00    +0.043 H 
ATOM     77 H77  LIG A   1      17.053  28.704  15.677  1.00 20.00    +0.043 H 
ATOM     78 H78  LIG A   1      18.868  27.426  17.614  1.00 20.00    +0.122 HD
ATOM     79 H79  LIG A   1      18.121  30.109  17.500  1.00 20.00    +0.043 H 
ATOM     80 H80  LIG A   1      18.956  29.239  18.765  1.00 20.00    +0.043 H 
ATOM     81 H81  LIG A   1      16.970  30.173  19.748  1.00 20.00    +0.028 H 
ATOM     82 H82  LIG A   1      16.805  28.432  19.717  1.00 20.00    +0.028 H 
ATOM     83 H83  LIG A   1      14.686  29.432  19.114  1.00 20.00    +0.028 H 
ATOM     84 H84  LIG A   1      15.313  28.539  17.742  1.00 20.00    +0.028 H 
ATOM     85 H85  LIG A   1      14.333  30.621  16.970  1.00 20.00    +0.043 H 
ATOM     86 H86  LIG A   1      16.060  30.683  16.663  1.00 20.00    +0.043 H 
ATOM     87 H87  LIG A   1      16.290  32.001  18.675  1.00 20.00    +0.118 HD
ATOM     88 H88  LIG A   1      14.684  31.923  18.944  1.00 20.00    +0.118 HD
ATOM     89 H89  LIG A   1      18.128  23.350  12.085  1.00 20.00    +0.068 H 
ATOM     90 H90  LIG A   1      23.456  19.561   7.553  1.00 20.00    +0.057 H 
ATOM     91 H91  LIG A   1      24.348  21.240   5.956  1.00 20.00    +0.119 HD
ATOM     92 H92  LIG A   1      24.902  19.718   5.718  1.00 20.00    +0.119 HD
ATOM     93 H93  LIG A   1      21.881  21.342   9.244  1.00 20.00    +0.118 HD
ATOM     94 H94  LIG A   1      20.363  20.868   9.609  1.00 20.00    +0.118 HD
ATOM     95 H95  LIG A   1      21.324  23.655   9.607  1.00 20.00    +0.045 H 
ATOM     96 H96  LIG A   1      19.689  23.156   9.976  1.00 20.00    +0.045 H 
ATOM     97 H97  LIG A   1      22.175  22.266  11.541  1.00 20.00    +0.058 H 
ATOM     98 H98  LIG A   1      20.515  21.864  11.987  1.00 20.00    +0.058 H 
ATOM     99 H99  LIG A   1      19.141  24.364  11.804  1.00 20.00    +0.059 H 
ATOM    100 H100 LIG A   1      19.363  23.420  13.284  1.00 20.00    +0.059 H 
ATOM    101 H101 LIG A   1      20.246  26.324  12.844  1.00 20.00    +0.059 H 
ATOM    102 H102 LIG A   1      20.574  25.409  14.311  1.00 20.00    +0.059 H 
ATOM    103 H103 LIG A   1      18.351  25.216  14.653  1.00 20.00    +0.210 HD
ENDROOT
TORSDOF 0
                                                                                                          
ENDMDL
MODEL 3
REMARK VINA RESULT:   -11.556      3.845      9.918
REMARK INTER + INTRA:         -11.556
REMARK INTER:                 -11.556
REMARK INTRA:                   0.000
REMARK UNBOUND:                 0.000
ROOT
ATOM      1 C1   LIG A   1      26.008  21.790  13.571  1.00 20.00    -0.060 C 
ATOM      2 C2   LIG A   1      24.718  21.041  13.189  1.00 20.00    -0.016 C 
ATOM      3 C3   LIG A   1      23.580  22.115  13.113  1.00 20.00    -0.023 C 
ATOM      4 C4   LIG A   1      22.308  21.615  12.487  1.00 20.00    -0.048 A 
ATOM      5 C5   LIG A   1      21.979  22.005  11.186  1.00 20.00    -0.058 A 
ATOM      6 C6   LIG A   1      21.151  21.195  10.419  1.00 20.00    -0.051 A 
ATOM      7 C7   LIG A   1      20.718  19.974  10.943  1.00 20.00    +0.017 A 
ATOM      8 C8   LIG A   1      20.783  19.766  12.327  1.00 20.00    -0.051 A 
ATOM      9 C9   LIG A   1      21.576  20.600  13.108  1.00 20.00    -0.058 A 
ATOM     10 C10  LIG A   1      20.446  18.836  10.040  1.00 20.00    +0.140 C 
ATOM     11 C11  LIG A   1      21.124  17.671  10.145  1.00 20.00    +0.047 C 
ATOM     12 C12  LIG A   1      22.417  17.419  10.861  1.00 20.00    +0.256 C 
ATOM     13 O13  LIG A   1      22.688  16.266  11.194  1.00 20.00    -0.269 OA
ATOM     14 N14  LIG A   1      23.361  18.432  10.724  1.00 20.00    -0.278 NA
ATOM     15 C15  LIG A   1      24.203  18.368   9.520  1.00 20.00    +0.029 C 
ATOM     16 C16  LIG A   1      23.488  18.135   8.166  1.00 20.00    -0.034 C 
ATOM     17 C17  LIG A   1      22.710  19.369   7.699  1.00 20.00    -0.034 C 
ATOM     18 C18  LIG A   1      21.650  19.124   6.607  1.00 20.00    +0.085 C 
ATOM     19 C19  LIG A   1      21.131  20.476   6.136  1.00 20.00    +0.311 C 
ATOM     20 O20  LIG A   1      20.502  21.298   6.784  1.00 20.00    -0.252 OA
ATOM     21 O21  LIG A   1      21.468  20.746   4.855  1.00 20.00    -0.481 OA
ATOM     22 C22  LIG A   1      20.487  18.172   6.873  1.00 20.00    +0.009 A 
ATOM     23 C23  LIG A   1      20.287  17.140   5.935  1.00 20.00    -0.052 A 
ATOM     24 C24  LIG A   1      19.201  16.257   6.020  1.00 20.00    -0.038 A 
ATOM     25 C25  LIG A   1      18.235  16.388   7.016  1.00 20.00    +0.038 A 
ATOM     26 N26  LIG A   1      17.169  15.511   7.190  1.00 20.00    -0.385 NA
ATOM     27 C27  LIG A   1      16.723  14.590   6.152  1.00 20.00    +0.016 C 
ATOM     28 C28  LIG A   1      15.953  15.315   5.048  1.00 20.00    -0.023 C 
ATOM     29 C29  LIG A   1      15.484  14.325   3.981  1.00 20.00    -0.003 C 
ATOM     30 N30  LIG A   1      14.694  15.021   2.966  1.00 20.00    -0.317 NA
ATOM     31 C31  LIG A   1      14.287  14.138   1.872  1.00 20.00    -0.005 C 
ATOM     32 C32  LIG A   1      12.759  14.061   1.769  1.00 20.00    -0.039 C 
ATOM     33 C33  LIG A   1      12.060  13.386   2.958  1.00 20.00    -0.040 C 
ATOM     34 C34  LIG A   1      12.447  11.925   3.203  1.00 20.00    -0.008 C 
ATOM     35 N35  LIG A   1      12.100  11.048   2.088  1.00 20.00    -0.330 NA
ATOM     36 C36  LIG A   1      18.442  17.387   7.971  1.00 20.00    +0.004 A 
ATOM     37 C37  LIG A   1      19.549  18.255   7.917  1.00 20.00    +0.133 A 
ATOM     38 O38  LIG A   1      19.626  19.160   8.955  1.00 20.00    -0.456 OA
ATOM     39 C39  LIG A   1      23.892  18.897  11.935  1.00 20.00    +0.246 C 
ATOM     40 O40  LIG A   1      23.602  18.383  13.022  1.00 20.00    -0.273 OA
ATOM     41 C41  LIG A   1      24.872  20.136  11.895  1.00 20.00    +0.088 C 
ATOM     42 N42  LIG A   1      26.248  19.595  11.790  1.00 20.00    -0.320 NA
ATOM     43 N43  LIG A   1      21.644  18.781  10.222  1.00 20.00    -0.328 NA
ATOM     44 C44  LIG A   1      21.050  17.919   9.201  1.00 20.00    +0.016 C 
ATOM     45 C45  LIG A   1      20.540  18.698   7.979  1.00 20.00    +0.059 C 
ATOM     46 O46  LIG A   1      20.103  17.830   6.934  1.00 20.00    -0.378 OA
ATOM     47 C47  LIG A   1      18.793  17.308   7.144  1.00 20.00    +0.070 C 
ATOM     48 C48  LIG A   1      18.410  16.418   5.965  1.00 20.00    +0.067 C 
ATOM     49 O49  LIG A   1      17.077  15.939   6.100  1.00 20.00    -0.394 OA
ATOM     50 H50  LIG A   1      26.804  21.093  13.853  1.00 20.00    +0.023 H 
ATOM     51 H51  LIG A   1      25.837  22.441  14.436  1.00 20.00    +0.023 H 
ATOM     52 H52  LIG A   1      26.365  22.415  12.746  1.00 20.00    +0.023 H 
ATOM     53 H53  LIG A   1      24.484  20.387  14.038  1.00 20.00    +0.032 H 
ATOM     54 H54  LIG A   1      23.940  22.987  12.549  1.00 20.00    +0.032 H 
ATOM     55 H55  LIG A   1      23.357  22.485  14.122  1.00 20.00    +0.032 H 
ATOM     56 H56  LIG A   1      22.467  22.855  10.715  1.00 20.00    +0.063 H 
ATOM     57 H57  LIG A   1      20.992  21.446   9.374  1.00 20.00    +0.063 H 
ATOM     58 H58  LIG A   1      20.384  18.857  12.776  1.00 20.00    +0.063 H 
ATOM     59 H59  LIG A   1      21.776  20.317  14.140  1.00 20.00    +0.063 H 
ATOM     60 H60  LIG A   1      20.870  16.814   9.527  1.00 20.00    +0.072 H 
ATOM     61 H61  LIG A   1      24.905  17.540   9.679  1.00 20.00    +0.050 H 
ATOM     62 H62  LIG A   1      24.801  19.280   9.435  1.00 20.00    +0.050 H 
ATOM     63 H63  LIG A   1      22.856  17.245   8.205  1.00 20.00    +0.029 H 
ATOM     64 H64  LIG A   1      24.253  17.916   7.410  1.00 20.00    +0.029 H 
ATOM     65 H65  LIG A   1      22.262  19.873   8.543  1.00 20.00    +0.028 H 
ATOM     66 H66  LIG A   1      23.442  20.094   7.315  1.00 20.00    +0.028 H 
ATOM     67 H67  LIG A   1      22.221  18.710   5.762  1.00 20.00    +0.047 H 
ATOM     68 H68  LIG A   1      21.059  21.621   4.684  1.00 20.00    +0.296 HD
ATOM     69 H69  LIG A   1      20.981  17.008   5.105  1.00 20.00    +0.063 H 
ATOM     70 H70  LIG A   1      19.130  15.474   5.272  1.00 20.00    +0.064 H 
ATOM     71 H71  LIG A   1      16.405  15.913   7.730  1.00 20.00    +0.160 HD
ATOM     72 H72  LIG A   1      16.055  13.861   6.626  1.00 20.00    +0.049 H 
ATOM     73 H73  LIG A   1      17.558  14.010   5.749  1.00 20.00    +0.049 H 
ATOM     74 H74  LIG A   1      16.584  16.084   4.587  1.00 20.00    +0.030 H 
ATOM     75 H75  LIG A   1      15.093  15.836   5.483  1.00 20.00    +0.030 H 
ATOM     76 H76  LIG A   1      16.357  13.846   3.527  1.00 20.00    +0.043 H 
ATOM     77 H77  LIG A   1      14.873  13.547   4.453  1.00 20.00    +0.043 H 
ATOM     78 H78  LIG A   1      15.238  15.800   2.590  1.00 20.00    +0.122 HD
ATOM     79 H79  LIG A   1      14.723  13.136   1.954  1.00 20.00    +0.043 H 
ATOM     80 H80  LIG A   1      14.673  14.554   0.933  1.00 20.00    +0.043 H 
ATOM     81 H81  LIG A   1      12.493  13.543   0.838  1.00 20.00    +0.028 H 
ATOM     82 H82  LIG A   1      12.355  15.078   1.664  1.00 20.00    +0.028 H 
ATOM     83 H83  LIG A   1      10.974  13.447   2.799  1.00 20.00    +0.028 H 
ATOM     84 H84  LIG A   1      12.262  13.958   3.872  1.00 20.00    +0.028 H 
ATOM     85 H85  LIG A   1      11.926  11.565   4.099  1.00 20.00    +0.043 H 
ATOM     86 H86  LIG A   1      13.519  11.830   3.410  1.00 20.00    +0.043 H 
ATOM     87 H87  LIG A   1      12.572  11.354   1.239  1.00 20.00    +0.118 HD
ATOM     88 H88  LIG A   1      11.100  11.121   1.900  1.00 20.00    +0.118 HD
ATOM     89 H89  LIG A   1      17.745  17.493   8.801  1.00 20.00    +0.068 H 
ATOM     90 H90  LIG A   1      24.663  20.743  11.009  1.00 20.00    +0.057 H 
ATOM     91 H91  LIG A   1      26.328  18.902  11.052  1.00 20.00    +0.119 HD
ATOM     92 H92  LIG A   1      26.900  20.345  11.572  1.00 20.00    +0.119 HD
ATOM     93 H93  LIG A   1      22.425  19.298   9.820  1.00 20.00    +0.118 HD
ATOM     94 H94  LIG A   1      20.966  19.478  10.526  1.00 20.00    +0.118 HD
ATOM     95 H95  LIG A   1      21.789  17.175   8.881  1.00 20.00    +0.045 H 
ATOM     96 H96  LIG A   1      20.230  17.351   9.655  1.00 20.00    +0.045 H 
ATOM     97 H97  LIG A   1      21.363  19.292   7.564  1.00 20.00    +0.058 H 
ATOM     98 H98  LIG A   1      19.742  19.399   8.254  1.00 20.00    +0.058 H 
ATOM     99 H99  LIG A   1      18.749  16.725   8.069  1.00 20.00    +0.059 H 
ATOM    100 H100 LIG A   1      18.074  18.131   7.235  1.00 20.00    +0.059 H 
ATOM    101 H101 LIG A   1      19.084  15.556   5.908  1.00 20.00    +0.059 H 
ATOM    102 H102 LIG A   1      18.503  16.958   5.017  1.00 20.00    +0.059 H 
ATOM    103 H103 LIG A   1      16.482  16.702   5.990  1.00 20.00    +0.210 HD
ENDROOT
TORSDOF 0
                                                                                                          
ENDMDL
MODEL 4
REMARK VINA RESULT:   -11.493      2.849     11.139
REMARK INTER + INTRA:         -11.493
REMARK INTER:                 -11.493
REMARK INTRA:                   0.000
REMARK UNBOUND:                 0.000
ROOT
ATOM      1 C1   LIG A   1      22.946  28.166  15.779  1.00 20.00    -0.060 C 
ATOM      2 C2   LIG A   1      22.129  26.953  15.298  1.00 20.00    -0.016 C 
ATOM      3 C3   LIG A   1      20.836  27.523  14.620  1.00 20.00    -0.023 C 
ATOM      4 C4   LIG A   1      20.049  26.500  13.849  1.00 20.00    -0.048 A 
ATOM      5 C5   LIG A   1      20.095  26.505  12.452  1.00 20.00    -0.058 A 
ATOM      6 C6   LIG A   1      19.840  25.330  11.756  1.00 20.00    -0.051 A 
ATOM      7 C7   LIG A   1      19.610  24.151  12.472  1.00 20.00    +0.017 A 
ATOM      8 C8   LIG A   1      19.250  24.235  13.823  1.00 20.00    -0.051 A 
ATOM      9 C9   LIG A   1      19.461  25.423  14.515  1.00 20.00    -0.058 A 
ATOM     10 C10  LIG A   1      19.993  22.848  11.891  1.00 20.00    +0.140 C 
ATOM     11 C11  LIG A   1      20.888  22.037  12.500  1.00 20.00    +0.047 C 
ATOM     12 C12  LIG A   1      21.871  22.393  13.575  1.00 20.00    +0.256 C 
ATOM     13 O13  LIG A   1      22.319  21.491  14.281  1.00 20.00    -0.269 OA
ATOM     14 N14  LIG A   1      22.484  23.631  13.411  1.00 20.00    -0.278 NA
ATOM     15 C15  LIG A   1      23.672  23.652  12.543  1.00 20.00    +0.029 C 
ATOM     16 C16  LIG A   1      23.560  22.939  11.172  1.00 20.00    -0.034 C 
ATOM     17 C17  LIG A   1      22.681  23.711  10.184  1.00 20.00    -0.034 C 
ATOM     18 C18  LIG A   1      22.175  22.913   8.967  1.00 20.00    +0.085 C 
ATOM     19 C19  LIG A   1      21.496  23.885   8.010  1.00 20.00    +0.311 C 
ATOM     20 O20  LIG A   1      20.481  24.534   8.206  1.00 20.00    -0.252 OA
ATOM     21 O21  LIG A   1      22.164  24.019   6.842  1.00 20.00    -0.481 OA
ATOM     22 C22  LIG A   1      21.304  21.677   9.175  1.00 20.00    +0.009 A 
ATOM     23 C23  LIG A   1      21.734  20.489   8.551  1.00 20.00    -0.052 A 
ATOM     24 C24  LIG A   1      20.975  19.310   8.592  1.00 20.00    -0.038 A 
ATOM     25 C25  LIG A   1      19.730  19.269   9.217  1.00 20.00    +0.038 A 
ATOM     26 N26  LIG A   1      18.957  18.120   9.343  1.00 20.00    -0.385 NA
ATOM     27 C27  LIG A   1      19.169  16.929   8.531  1.00 20.00    +0.016 C 
ATOM     28 C28  LIG A   1      18.658  17.121   7.103  1.00 20.00    -0.023 C 
ATOM     29 C29  LIG A   1      18.878  15.853   6.278  1.00 20.00    -0.003 C 
ATOM     30 N30  LIG A   1      18.327  16.027   4.935  1.00 20.00    -0.317 NA
ATOM     31 C31  LIG A   1      18.583  14.874   4.070  1.00 20.00    -0.005 C 
ATOM     32 C32  LIG A   1      17.269  14.244   3.592  1.00 20.00    -0.039 C 
ATOM     33 C33  LIG A   1      16.420  13.594   4.693  1.00 20.00    -0.040 C 
ATOM     34 C34  LIG A   1      17.089  12.435   5.438  1.00 20.00    -0.008 C 
ATOM     35 N35  LIG A   1      17.404  11.305   4.569  1.00 20.00    -0.330 NA
ATOM     36 C36  LIG A   1      19.310  20.433   9.867  1.00 20.00    +0.004 A 
ATOM     37 C37  LIG A   1      20.080  21.611   9.863  1.00 20.00    +0.133 A 
ATOM     38 O38  LIG A   1      19.540  22.657  10.582  1.00 20.00    -0.456 OA
ATOM     39 C39  LIG A   1      22.414  24.466  14.535  1.00 20.00    +0.246 C 
ATOM     40 O40  LIG A   1      21.923  24.089  15.606  1.00 20.00    -0.273 OA
ATOM     41 C41  LIG A   1      22.963  25.942  14.404  1.00 20.00    +0.088 C 
ATOM     42 N42  LIG A   1      24.384  25.913  14.827  1.00 20.00    -0.320 NA
ATOM     43 N43  LIG A   1      21.020  23.253  12.393  1.00 20.00    -0.328 NA
ATOM     44 C44  LIG A   1      21.077  22.067  11.540  1.00 20.00    +0.016 C 
ATOM     45 C45  LIG A   1      20.825  22.379  10.057  1.00 20.00    +0.059 C 
ATOM     46 O46  LIG A   1      21.033  21.238   9.226  1.00 20.00    -0.378 OA
ATOM     47 C47  LIG A   1      19.931  20.334   9.221  1.00 20.00    +0.070 C 
ATOM     48 C48  LIG A   1      20.240  19.168   8.287  1.00 20.00    +0.067 C 
ATOM     49 O49  LIG A   1      19.131  18.282   8.193  1.00 20.00    -0.394 OA
ATOM     50 H50  LIG A   1      23.756  27.859  16.449  1.00 20.00    +0.023 H 
ATOM     51 H51  LIG A   1      22.315  28.860  16.345  1.00 20.00    +0.023 H 
ATOM     52 H52  LIG A   1      23.378  28.716  14.936  1.00 20.00    +0.023 H 
ATOM     53 H53  LIG A   1      21.808  26.424  16.205  1.00 20.00    +0.032 H 
ATOM     54 H54  LIG A   1      21.111  28.347  13.949  1.00 20.00    +0.032 H 
ATOM     55 H55  LIG A   1      20.186  27.967  15.385  1.00 20.00    +0.032 H 
ATOM     56 H56  LIG A   1      20.458  27.372  11.905  1.00 20.00    +0.063 H 
ATOM     57 H57  LIG A   1      19.988  25.314  10.680  1.00 20.00    +0.063 H 
ATOM     58 H58  LIG A   1      18.989  23.342  14.390  1.00 20.00    +0.063 H 
ATOM     59 H59  LIG A   1      19.363  25.422  15.600  1.00 20.00    +0.063 H 
ATOM     60 H60  LIG A   1      21.110  21.049  12.107  1.00 20.00    +0.072 H 
ATOM     61 H61  LIG A   1      24.476  23.168  13.111  1.00 20.00    +0.050 H 
ATOM     62 H62  LIG A   1      23.984  24.685  12.364  1.00 20.00    +0.050 H 
ATOM     63 H63  LIG A   1      23.227  21.906  11.294  1.00 20.00    +0.029 H 
ATOM     64 H64  LIG A   1      24.568  22.871  10.742  1.00 20.00    +0.029 H 
ATOM     65 H65  LIG A   1      21.849  24.169  10.700  1.00 20.00    +0.028 H 
ATOM     66 H66  LIG A   1      23.269  24.565   9.818  1.00 20.00    +0.028 H 
ATOM     67 H67  LIG A   1      23.093  22.581   8.459  1.00 20.00    +0.047 H 
ATOM     68 H68  LIG A   1      21.614  24.645   6.328  1.00 20.00    +0.296 HD
ATOM     69 H69  LIG A   1      22.678  20.461   8.008  1.00 20.00    +0.063 H 
ATOM     70 H70  LIG A   1      21.386  18.430   8.107  1.00 20.00    +0.064 H 
ATOM     71 H71  LIG A   1      17.974  18.317   9.523  1.00 20.00    +0.160 HD
ATOM     72 H72  LIG A   1      18.609  16.109   8.998  1.00 20.00    +0.049 H 
ATOM     73 H73  LIG A   1      20.218  16.618   8.546  1.00 20.00    +0.049 H 
ATOM     74 H74  LIG A   1      19.169  17.965   6.627  1.00 20.00    +0.030 H 
ATOM     75 H75  LIG A   1      17.592  17.374   7.127  1.00 20.00    +0.030 H 
ATOM     76 H76  LIG A   1      19.952  15.639   6.227  1.00 20.00    +0.043 H 
ATOM     77 H77  LIG A   1      18.384  15.008   6.771  1.00 20.00    +0.043 H 
ATOM     78 H78  LIG A   1      18.728  16.866   4.511  1.00 20.00    +0.122 HD
ATOM     79 H79  LIG A   1      19.224  14.123   4.547  1.00 20.00    +0.043 H 
ATOM     80 H80  LIG A   1      19.138  15.222   3.189  1.00 20.00    +0.043 H 
ATOM     81 H81  LIG A   1      17.495  13.506   2.811  1.00 20.00    +0.028 H 
ATOM     82 H82  LIG A   1      16.661  15.016   3.099  1.00 20.00    +0.028 H 
ATOM     83 H83  LIG A   1      15.484  13.238   4.242  1.00 20.00    +0.028 H 
ATOM     84 H84  LIG A   1      16.129  14.357   5.427  1.00 20.00    +0.028 H 
ATOM     85 H85  LIG A   1      16.412  12.083   6.227  1.00 20.00    +0.043 H 
ATOM     86 H86  LIG A   1      18.005  12.765   5.941  1.00 20.00    +0.043 H 
ATOM     87 H87  LIG A   1      18.035  11.598   3.824  1.00 20.00    +0.118 HD
ATOM     88 H88  LIG A   1      16.552  10.984   4.109  1.00 20.00    +0.118 HD
ATOM     89 H89  LIG A   1      18.369  20.435  10.416  1.00 20.00    +0.068 H 
ATOM     90 H90  LIG A   1      22.912  26.264  13.360  1.00 20.00    +0.057 H 
ATOM     91 H91  LIG A   1      24.902  25.172  14.366  1.00 20.00    +0.119 HD
ATOM     92 H92  LIG A   1      24.836  26.792  14.586  1.00 20.00    +0.119 HD
ATOM     93 H93  LIG A   1      21.715  23.931  12.083  1.00 20.00    +0.118 HD
ATOM     94 H94  LIG A   1      20.113  23.709  12.295  1.00 20.00    +0.118 HD
ATOM     95 H95  LIG A   1      22.057  21.587  11.653  1.00 20.00    +0.045 H 
ATOM     96 H96  LIG A   1      20.343  21.338  11.902  1.00 20.00    +0.045 H 
ATOM     97 H97  LIG A   1      21.541  23.140   9.725  1.00 20.00    +0.058 H 
ATOM     98 H98  LIG A   1      19.820  22.790   9.899  1.00 20.00    +0.058 H 
ATOM     99 H99  LIG A   1      19.735  19.952  10.227  1.00 20.00    +0.059 H 
ATOM    100 H100 LIG A   1      19.026  20.851   8.879  1.00 20.00    +0.059 H 
ATOM    101 H101 LIG A   1      21.103  18.605   8.658  1.00 20.00    +0.059 H 
ATOM    102 H102 LIG A   1      20.500  19.524   7.284  1.00 20.00    +0.059 H 
ATOM    103 H103 LIG A   1      18.423  18.751   7.716  1.00 20.00    +0.210 HD
ENDROOT
TORSDOF 0
                                                                                                          
ENDMDL
MODEL 5
REMARK VINA RESULT:   -11.210      6.059      8.998
REMARK INTER + INTRA:         -11.210
REMARK INTER:                 -11.210
REMARK INTRA:                   0.000
REMARK UNBOUND:                 0.000
ROOT
ATOM      1 C1   LIG A   1      24.950  21.907   7.097  1.00 20.00    -0.060 C 
ATOM      2 C2   LIG A   1      23.643  22.318   7.799  1.00 20.00    -0.016 C 
ATOM      3 C3   LIG A   1      23.104  21.041   8.530  1.00 20.00    -0.023 C 
ATOM      4 C4   LIG A   1      21.983  21.315   9.493  1.00 20.00    -0.048 A 
ATOM      5 C5   LIG A   1      22.234  21.297  10.867  1.00 20.00    -0.058 A 
ATOM      6 C6   LIG A   1      21.417  22.028  11.721  1.00 20.00    -0.051 A 
ATOM      7 C7   LIG A   1      20.400  22.819  11.178  1.00 20.00    +0.017 A 
ATOM      8 C8   LIG A   1      19.968  22.569   9.870  1.00 20.00    -0.051 A 
ATOM      9 C9   LIG A   1      20.760  21.801   9.022  1.00 20.00    -0.058 A 
ATOM     10 C10  LIG A   1      19.977  24.054  11.870  1.00 20.00    +0.140 C 
ATOM     11 C11  LIG A   1      20.072  25.266  11.276  1.00 20.00    +0.047 C 
ATOM     12 C12  LIG A   1      20.885  25.642  10.074  1.00 20.00    +0.256 C 
ATOM     13 O13  LIG A   1      20.564  26.646   9.439  1.00 20.00    -0.269 OA
ATOM     14 N14  LIG A   1      22.149  25.062  10.026  1.00 20.00    -0.278 NA
ATOM     15 C15  LIG A   1      23.209  25.767  10.763  1.00 20.00    +0.029 C 
ATOM     16 C16  LIG A   1      22.891  26.209  12.213  1.00 20.00    -0.034 C 
ATOM     17 C17  LIG A   1      22.843  25.025  13.184  1.00 20.00    -0.034 C 
ATOM     18 C18  LIG A   1      22.145  25.288  14.533  1.00 20.00    +0.085 C 
ATOM     19 C19  LIG A   1      22.370  24.078  15.429  1.00 20.00    +0.311 C 
ATOM     20 O20  LIG A   1      21.960  22.940  15.259  1.00 20.00    -0.252 OA
ATOM     21 O21  LIG A   1      23.147  24.359  16.500  1.00 20.00    -0.481 OA
ATOM     22 C22  LIG A   1      20.677  25.706  14.562  1.00 20.00    +0.009 A 
ATOM     23 C23  LIG A   1      20.368  26.880  15.277  1.00 20.00    -0.052 A 
ATOM     24 C24  LIG A   1      19.048  27.318  15.454  1.00 20.00    -0.038 A 
ATOM     25 C25  LIG A   1      17.967  26.584  14.966  1.00 20.00    +0.038 A 
ATOM     26 N26  LIG A   1      16.641  26.993  15.056  1.00 20.00    -0.385 NA
ATOM     27 C27  LIG A   1      16.191  28.026  15.980  1.00 20.00    +0.016 C 
ATOM     28 C28  LIG A   1      16.135  27.511  17.418  1.00 20.00    -0.023 C 
ATOM     29 C29  LIG A   1      15.646  28.609  18.364  1.00 20.00    -0.003 C 
ATOM     30 N30  LIG A   1      15.534  28.085  19.724  1.00 20.00    -0.317 NA
ATOM     31 C31  LIG A   1      15.149  29.115  20.691  1.00 20.00    -0.005 C 
ATOM     32 C32  LIG A   1      13.821  28.762  21.369  1.00 20.00    -0.039 C 
ATOM     33 C33  LIG A   1      12.596  28.765  20.444  1.00 20.00    -0.040 C 
ATOM     34 C34  LIG A   1      12.279  30.109  19.781  1.00 20.00    -0.008 C 
ATOM     35 N35  LIG A   1      11.956  31.157  20.744  1.00 20.00    -0.330 NA
ATOM     36 C36  LIG A   1      18.265  25.436  14.227  1.00 20.00    +0.004 A 
ATOM     37 C37  LIG A   1      19.588  25.007  14.012  1.00 20.00    +0.133 A 
ATOM     38 O38  LIG A   1      19.711  23.877  13.231  1.00 20.00    -0.456 OA
ATOM     39 C39  LIG A   1      22.440  24.404   8.823  1.00 20.00    +0.246 C 
ATOM     40 O40  LIG A   1      21.665  24.420   7.859  1.00 20.00    -0.273 OA
ATOM     41 C41  LIG A   1      23.796  23.601   8.720  1.00 20.00    +0.088 C 
ATOM     42 N42  LIG A   1      24.808  24.531   8.164  1.00 20.00    -0.320 NA
ATOM     43 N43  LIG A   1      20.942  24.402  11.223  1.00 20.00    -0.328 NA
ATOM     44 C44  LIG A   1      20.382  25.333  12.202  1.00 20.00    +0.016 C 
ATOM     45 C45  LIG A   1      20.608  24.886  13.654  1.00 20.00    +0.059 C 
ATOM     46 O46  LIG A   1      20.189  25.878  14.592  1.00 20.00    -0.378 OA
ATOM     47 C47  LIG A   1      18.782  25.884  14.815  1.00 20.00    +0.070 C 
ATOM     48 C48  LIG A   1      18.440  26.956  15.846  1.00 20.00    +0.067 C 
ATOM     49 O49  LIG A   1      17.051  26.941  16.155  1.00 20.00    -0.394 OA
ATOM     50 H50  LIG A   1      25.282  22.676   6.391  1.00 20.00    +0.023 H 
ATOM     51 H51  LIG A   1      24.807  20.987   6.518  1.00 20.00    +0.023 H 
ATOM     52 H52  LIG A   1      25.752  21.726   7.821  1.00 20.00    +0.023 H 
ATOM     53 H53  LIG A   1      22.930  22.554   6.999  1.00 20.00    +0.032 H 
ATOM     54 H54  LIG A   1      23.929  20.554   9.067  1.00 20.00    +0.032 H 
ATOM     55 H55  LIG A   1      22.762  20.310   7.786  1.00 20.00    +0.032 H 
ATOM     56 H56  LIG A   1      23.135  20.837  11.267  1.00 20.00    +0.063 H 
ATOM     57 H57  LIG A   1      21.686  22.100  12.771  1.00 20.00    +0.063 H 
ATOM     58 H58  LIG A   1      19.128  23.115   9.442  1.00 20.00    +0.063 H 
ATOM     59 H59  LIG A   1      20.519  21.773   7.961  1.00 20.00    +0.063 H 
ATOM     60 H60  LIG A   1      19.691  26.161  11.760  1.00 20.00    +0.072 H 
ATOM     61 H61  LIG A   1      23.442  26.667  10.179  1.00 20.00    +0.050 H 
ATOM     62 H62  LIG A   1      24.116  25.157  10.784  1.00 20.00    +0.050 H 
ATOM     63 H63  LIG A   1      21.976  26.805  12.249  1.00 20.00    +0.029 H 
ATOM     64 H64  LIG A   1      23.691  26.883  12.546  1.00 20.00    +0.029 H 
ATOM     65 H65  LIG A   1      22.407  24.162  12.703  1.00 20.00    +0.028 H 
ATOM     66 H66  LIG A   1      23.881  24.722  13.385  1.00 20.00    +0.028 H 
ATOM     67 H67  LIG A   1      22.724  26.109  14.983  1.00 20.00    +0.047 H 
ATOM     68 H68  LIG A   1      23.189  23.510  16.988  1.00 20.00    +0.296 HD
ATOM     69 H69  LIG A   1      21.162  27.479  15.723  1.00 20.00    +0.063 H 
ATOM     70 H70  LIG A   1      18.893  28.245  15.997  1.00 20.00    +0.064 H 
ATOM     71 H71  LIG A   1      15.978  26.226  14.953  1.00 20.00    +0.160 HD
ATOM     72 H72  LIG A   1      15.181  28.324  15.672  1.00 20.00    +0.049 H 
ATOM     73 H73  LIG A   1      16.805  28.929  15.897  1.00 20.00    +0.049 H 
ATOM     74 H74  LIG A   1      17.124  27.164  17.737  1.00 20.00    +0.030 H 
ATOM     75 H75  LIG A   1      15.467  26.644  17.470  1.00 20.00    +0.030 H 
ATOM     76 H76  LIG A   1      16.348  29.450  18.332  1.00 20.00    +0.043 H 
ATOM     77 H77  LIG A   1      14.667  28.968  18.027  1.00 20.00    +0.043 H 
ATOM     78 H78  LIG A   1      16.427  27.674  20.003  1.00 20.00    +0.122 HD
ATOM     79 H79  LIG A   1      15.106  30.116  20.246  1.00 20.00    +0.043 H 
ATOM     80 H80  LIG A   1      15.927  29.168  21.464  1.00 20.00    +0.043 H 
ATOM     81 H81  LIG A   1      13.657  29.453  22.207  1.00 20.00    +0.028 H 
ATOM     82 H82  LIG A   1      13.906  27.765  21.825  1.00 20.00    +0.028 H 
ATOM     83 H83  LIG A   1      11.723  28.438  21.026  1.00 20.00    +0.028 H 
ATOM     84 H84  LIG A   1      12.731  28.012  19.657  1.00 20.00    +0.028 H 
ATOM     85 H85  LIG A   1      11.420  29.980  19.111  1.00 20.00    +0.043 H 
ATOM     86 H86  LIG A   1      13.112  30.445  19.154  1.00 20.00    +0.043 H 
ATOM     87 H87  LIG A   1      12.736  31.305  21.381  1.00 20.00    +0.118 HD
ATOM     88 H88  LIG A   1      11.170  30.856  21.321  1.00 20.00    +0.118 HD
ATOM     89 H89  LIG A   1      17.458  24.859  13.778  1.00 20.00    +0.068 H 
ATOM     90 H90  LIG A   1      24.117  23.287   9.718  1.00 20.00    +0.057 H 
ATOM     91 H91  LIG A   1      24.819  25.419   8.657  1.00 20.00    +0.119 HD
ATOM     92 H92  LIG A   1      25.738  24.126   8.252  1.00 20.00    +0.119 HD
ATOM     93 H93  LIG A   1      21.945  24.305  11.379  1.00 20.00    +0.118 HD
ATOM     94 H94  LIG A   1      20.541  23.474  11.356  1.00 20.00    +0.118 HD
ATOM     95 H95  LIG A   1      20.823  26.326  12.050  1.00 20.00    +0.045 H 
ATOM     96 H96  LIG A   1      19.311  25.447  12.004  1.00 20.00    +0.045 H 
ATOM     97 H97  LIG A   1      21.682  24.737  13.820  1.00 20.00    +0.058 H 
ATOM     98 H98  LIG A   1      20.113  23.929  13.861  1.00 20.00    +0.058 H 
ATOM     99 H99  LIG A   1      18.240  26.088  13.886  1.00 20.00    +0.059 H 
ATOM    100 H100 LIG A   1      18.457  24.903  15.181  1.00 20.00    +0.059 H 
ATOM    101 H101 LIG A   1      18.700  27.947  15.460  1.00 20.00    +0.059 H 
ATOM    102 H102 LIG A   1      19.014  26.812  16.768  1.00 20.00    +0.059 H 
ATOM    103 H103 LIG A   1      16.870  26.117  16.641  1.00 20.00    +0.210 HD
ENDROOT
TORSDOF 0
                                                                                                          
ENDMDL
MODEL 6
REMARK VINA RESULT:   -10.986      4.013     10.361
REMARK INTER + INTRA:         -10.986
REMARK INTER:                 -10.986
REMARK INTRA:                   0.000
REMARK UNBOUND:                 0.000
ROOT
ATOM      1 C1   LIG A   1      24.607  21.563  11.869  1.00 20.00    -0.060 C 
ATOM      2 C2   LIG A   1      23.293  21.220  11.142  1.00 20.00    -0.016 C 
ATOM      3 C3   LIG A   1      23.261  22.092   9.840  1.00 20.00    -0.023 C 
ATOM      4 C4   LIG A   1      22.187  21.694   8.866  1.00 20.00    -0.048 A 
ATOM      5 C5   LIG A   1      22.533  20.996   7.705  1.00 20.00    -0.058 A 
ATOM      6 C6   LIG A   1      21.588  20.188   7.087  1.00 20.00    -0.051 A 
ATOM      7 C7   LIG A   1      20.330  20.037   7.678  1.00 20.00    +0.017 A 
ATOM      8 C8   LIG A   1      19.907  20.976   8.627  1.00 20.00    -0.051 A 
ATOM      9 C9   LIG A   1      20.841  21.820   9.219  1.00 20.00    -0.058 A 
ATOM     10 C10  LIG A   1      19.578  18.777   7.503  1.00 20.00    +0.140 C 
ATOM     11 C11  LIG A   1      19.224  18.010   8.559  1.00 20.00    +0.047 C 
ATOM     12 C12  LIG A   1      19.776  18.051   9.953  1.00 20.00    +0.256 C 
ATOM     13 O13  LIG A   1      19.097  17.586  10.867  1.00 20.00    -0.269 OA
ATOM     14 N14  LIG A   1      21.153  18.239  10.024  1.00 20.00    -0.278 NA
ATOM     15 C15  LIG A   1      21.975  17.024   9.908  1.00 20.00    +0.029 C 
ATOM     16 C16  LIG A   1      21.640  16.050   8.752  1.00 20.00    -0.034 C 
ATOM     17 C17  LIG A   1      22.057  16.602   7.385  1.00 20.00    -0.034 C 
ATOM     18 C18  LIG A   1      21.415  15.923   6.160  1.00 20.00    +0.085 C 
ATOM     19 C19  LIG A   1      22.091  16.465   4.907  1.00 20.00    +0.311 C 
ATOM     20 O20  LIG A   1      22.066  17.610   4.484  1.00 20.00    -0.252 OA
ATOM     21 O21  LIG A   1      22.810  15.523   4.256  1.00 20.00    -0.481 OA
ATOM     22 C22  LIG A   1      19.897  15.934   5.991  1.00 20.00    +0.009 A 
ATOM     23 C23  LIG A   1      19.274  14.686   5.793  1.00 20.00    -0.052 A 
ATOM     24 C24  LIG A   1      17.901  14.572   5.536  1.00 20.00    -0.038 A 
ATOM     25 C25  LIG A   1      17.088  15.698   5.417  1.00 20.00    +0.038 A 
ATOM     26 N26  LIG A   1      15.712  15.651   5.222  1.00 20.00    -0.385 NA
ATOM     27 C27  LIG A   1      15.018  14.459   4.751  1.00 20.00    +0.016 C 
ATOM     28 C28  LIG A   1      15.242  14.230   3.256  1.00 20.00    -0.023 C 
ATOM     29 C29  LIG A   1      14.492  12.983   2.785  1.00 20.00    -0.003 C 
ATOM     30 N30  LIG A   1      14.662  12.812   1.342  1.00 20.00    -0.317 NA
ATOM     31 C31  LIG A   1      14.034  11.586   0.847  1.00 20.00    -0.005 C 
ATOM     32 C32  LIG A   1      12.950  11.906  -0.189  1.00 20.00    -0.039 C 
ATOM     33 C33  LIG A   1      11.726  12.654   0.357  1.00 20.00    -0.040 C 
ATOM     34 C34  LIG A   1      10.937  11.914   1.442  1.00 20.00    -0.008 C 
ATOM     35 N35  LIG A   1      10.361  10.658   0.970  1.00 20.00    -0.330 NA
ATOM     36 C36  LIG A   1      17.689  16.939   5.645  1.00 20.00    +0.004 A 
ATOM     37 C37  LIG A   1      19.060  17.063   5.939  1.00 20.00    +0.133 A 
ATOM     38 O38  LIG A   1      19.487  18.353   6.173  1.00 20.00    -0.456 OA
ATOM     39 C39  LIG A   1      21.553  19.286  10.866  1.00 20.00    +0.246 C 
ATOM     40 O40  LIG A   1      20.745  19.926  11.550  1.00 20.00    -0.273 OA
ATOM     41 C41  LIG A   1      23.086  19.664  10.911  1.00 20.00    +0.088 C 
ATOM     42 N42  LIG A   1      23.691  18.882  12.015  1.00 20.00    -0.320 NA
ATOM     43 N43  LIG A   1      20.324  18.541   8.429  1.00 20.00    -0.328 NA
ATOM     44 C44  LIG A   1      19.565  17.438   7.842  1.00 20.00    +0.016 C 
ATOM     45 C45  LIG A   1      20.033  17.072   6.425  1.00 20.00    +0.059 C 
ATOM     46 O46  LIG A   1      19.384  15.901   5.931  1.00 20.00    -0.378 OA
ATOM     47 C47  LIG A   1      18.073  16.151   5.431  1.00 20.00    +0.070 C 
ATOM     48 C48  LIG A   1      17.477  14.848   4.905  1.00 20.00    +0.067 C 
ATOM     49 O49  LIG A   1      16.198  15.071   4.324  1.00 20.00    -0.394 OA
ATOM     50 H50  LIG A   1      24.613  21.162  12.889  1.00 20.00    +0.023 H 
ATOM     51 H51  LIG A   1      24.730  22.648  11.957  1.00 20.00    +0.023 H 
ATOM     52 H52  LIG A   1      25.475  21.168  11.332  1.00 20.00    +0.023 H 
ATOM     53 H53  LIG A   1      22.485  21.581  11.790  1.00 20.00    +0.032 H 
ATOM     54 H54  LIG A   1      24.238  22.038   9.342  1.00 20.00    +0.032 H 
ATOM     55 H55  LIG A   1      23.122  23.147  10.109  1.00 20.00    +0.032 H 
ATOM     56 H56  LIG A   1      23.562  20.965   7.355  1.00 20.00    +0.063 H 
ATOM     57 H57  LIG A   1      21.896  19.562   6.254  1.00 20.00    +0.063 H 
ATOM     58 H58  LIG A   1      18.904  20.931   9.051  1.00 20.00    +0.063 H 
ATOM     59 H59  LIG A   1      20.543  22.405  10.087  1.00 20.00    +0.063 H 
ATOM     60 H60  LIG A   1      18.608  17.124   8.431  1.00 20.00    +0.072 H 
ATOM     61 H61  LIG A   1      21.855  16.481  10.854  1.00 20.00    +0.050 H 
ATOM     62 H62  LIG A   1      23.031  17.296   9.828  1.00 20.00    +0.050 H 
ATOM     63 H63  LIG A   1      20.586  15.764   8.773  1.00 20.00    +0.029 H 
ATOM     64 H64  LIG A   1      22.197  15.118   8.920  1.00 20.00    +0.029 H 
ATOM     65 H65  LIG A   1      21.893  17.669   7.346  1.00 20.00    +0.028 H 
ATOM     66 H66  LIG A   1      23.148  16.498   7.307  1.00 20.00    +0.028 H 
ATOM     67 H67  LIG A   1      21.724  14.870   6.239  1.00 20.00    +0.047 H 
ATOM     68 H68  LIG A   1      23.166  15.999   3.475  1.00 20.00    +0.296 HD
ATOM     69 H69  LIG A   1      19.858  13.766   5.829  1.00 20.00    +0.063 H 
ATOM     70 H70  LIG A   1      17.492  13.573   5.418  1.00 20.00    +0.064 H 
ATOM     71 H71  LIG A   1      15.332  16.517   4.843  1.00 20.00    +0.160 HD
ATOM     72 H72  LIG A   1      13.947  14.612   4.927  1.00 20.00    +0.049 H 
ATOM     73 H73  LIG A   1      15.293  13.579   5.341  1.00 20.00    +0.049 H 
ATOM     74 H74  LIG A   1      16.312  14.119   3.045  1.00 20.00    +0.030 H 
ATOM     75 H75  LIG A   1      14.902  15.108   2.696  1.00 20.00    +0.030 H 
ATOM     76 H76  LIG A   1      14.875  12.109   3.323  1.00 20.00    +0.043 H 
ATOM     77 H77  LIG A   1      13.428  13.091   3.020  1.00 20.00    +0.043 H 
ATOM     78 H78  LIG A   1      15.659  12.799   1.118  1.00 20.00    +0.122 HD
ATOM     79 H79  LIG A   1      13.631  10.963   1.653  1.00 20.00    +0.043 H 
ATOM     80 H80  LIG A   1      14.807  10.978   0.359  1.00 20.00    +0.043 H 
ATOM     81 H81  LIG A   1      12.632  10.970  -0.667  1.00 20.00    +0.028 H 
ATOM     82 H82  LIG A   1      13.392  12.510  -0.995  1.00 20.00    +0.028 H 
ATOM     83 H83  LIG A   1      11.056  12.879  -0.483  1.00 20.00    +0.028 H 
ATOM     84 H84  LIG A   1      12.042  13.625   0.759  1.00 20.00    +0.028 H 
ATOM     85 H85  LIG A   1      10.120  12.559   1.788  1.00 20.00    +0.043 H 
ATOM     86 H86  LIG A   1      11.564  11.712   2.317  1.00 20.00    +0.043 H 
ATOM     87 H87  LIG A   1      11.095  10.033   0.643  1.00 20.00    +0.118 HD
ATOM     88 H88  LIG A   1       9.763  10.842   0.163  1.00 20.00    +0.118 HD
ATOM     89 H89  LIG A   1      17.085  17.845   5.617  1.00 20.00    +0.068 H 
ATOM     90 H90  LIG A   1      23.566  19.376   9.971  1.00 20.00    +0.057 H 
ATOM     91 H91  LIG A   1      23.447  17.898  11.962  1.00 20.00    +0.119 HD
ATOM     92 H92  LIG A   1      24.706  18.943  11.969  1.00 20.00    +0.119 HD
ATOM     93 H93  LIG A   1      21.311  18.292   8.470  1.00 20.00    +0.118 HD
ATOM     94 H94  LIG A   1      20.261  19.364   7.831  1.00 20.00    +0.118 HD
ATOM     95 H95  LIG A   1      19.642  16.558   8.493  1.00 20.00    +0.045 H 
ATOM     96 H96  LIG A   1      18.503  17.709   7.830  1.00 20.00    +0.045 H 
ATOM     97 H97  LIG A   1      21.105  16.844   6.450  1.00 20.00    +0.058 H 
ATOM     98 H98  LIG A   1      19.897  17.909   5.729  1.00 20.00    +0.058 H 
ATOM     99 H99  LIG A   1      17.426  16.556   6.215  1.00 20.00    +0.059 H 
ATOM    100 H100 LIG A   1      18.117  16.890   4.622  1.00 20.00    +0.059 H 
ATOM    101 H101 LIG A   1      17.367  14.127   5.722  1.00 20.00    +0.059 H 
ATOM    102 H102 LIG A   1      18.134  14.388   4.159  1.00 20.00    +0.059 H 
ATOM    103 H103 LIG A   1      16.333  15.584   3.508  1.00 20.00    +0.210 HD
ENDROOT
TORSDOF 0
                                                                                                          
ENDMDL
MODEL 7
REMARK VINA RESULT:   -10.680      2.091      2.756
REMARK INTER + INTRA:         -10.680
REMARK INTER:                 -10.680
REMARK INTRA:                   0.000
REMARK UNBOUND:                 0.000
ROOT
ATOM      1 C1   LIG A   1      17.686   9.963   2.733  1.00 20.00    -0.060 C 
ATOM      2 C2   LIG A   1      17.472  11.358   3.349  1.00 20.00    -0.016 C 
ATOM      3 C3   LIG A   1      16.344  11.204   4.426  1.00 20.00    -0.023 C 
ATOM      4 C4   LIG A   1      16.189  12.401   5.323  1.00 20.00    -0.048 A 
ATOM      5 C5   LIG A   1      16.661  12.343   6.638  1.00 20.00    -0.058 A 
ATOM      6 C6   LIG A   1      17.008  13.519   7.291  1.00 20.00    -0.051 A 
ATOM      7 C7   LIG A   1      16.942  14.729   6.595  1.00 20.00    +0.017 A 
ATOM      8 C8   LIG A   1      16.174  14.801   5.426  1.00 20.00    -0.051 A 
ATOM      9 C9   LIG A   1      15.784  13.627   4.790  1.00 20.00    -0.058 A 
ATOM     10 C10  LIG A   1      17.868  15.830   6.937  1.00 20.00    +0.140 C 
ATOM     11 C11  LIG A   1      18.734  16.334   6.029  1.00 20.00    +0.047 C 
ATOM     12 C12  LIG A   1      19.176  15.717   4.736  1.00 20.00    +0.256 C 
ATOM     13 O13  LIG A   1      19.638  16.451   3.863  1.00 20.00    -0.269 OA
ATOM     14 N14  LIG A   1      19.397  14.345   4.796  1.00 20.00    -0.278 NA
ATOM     15 C15  LIG A   1      20.728  13.927   5.263  1.00 20.00    +0.029 C 
ATOM     16 C16  LIG A   1      21.272  14.600   6.548  1.00 20.00    -0.034 C 
ATOM     17 C17  LIG A   1      20.549  14.117   7.809  1.00 20.00    -0.034 C 
ATOM     18 C18  LIG A   1      20.716  14.999   9.061  1.00 20.00    +0.085 C 
ATOM     19 C19  LIG A   1      20.103  14.264  10.246  1.00 20.00    +0.311 C 
ATOM     20 O20  LIG A   1      18.929  13.973  10.414  1.00 20.00    -0.252 OA
ATOM     21 O21  LIG A   1      21.025  13.894  11.163  1.00 20.00    -0.481 OA
ATOM     22 C22  LIG A   1      20.249  16.452   9.038  1.00 20.00    +0.009 A 
ATOM     23 C23  LIG A   1      21.193  17.427   9.414  1.00 20.00    -0.052 A 
ATOM     24 C24  LIG A   1      20.861  18.785   9.519  1.00 20.00    -0.038 A 
ATOM     25 C25  LIG A   1      19.559  19.233   9.300  1.00 20.00    +0.038 A 
ATOM     26 N26  LIG A   1      19.177  20.570   9.331  1.00 20.00    -0.385 NA
ATOM     27 C27  LIG A   1      19.986  21.611   9.952  1.00 20.00    +0.016 C 
ATOM     28 C28  LIG A   1      19.909  21.549  11.477  1.00 20.00    -0.023 C 
ATOM     29 C29  LIG A   1      20.753  22.660  12.104  1.00 20.00    -0.003 C 
ATOM     30 N30  LIG A   1      20.619  22.630  13.560  1.00 20.00    -0.317 NA
ATOM     31 C31  LIG A   1      21.472  23.620  14.220  1.00 20.00    -0.005 C 
ATOM     32 C32  LIG A   1      20.631  24.617  15.026  1.00 20.00    -0.039 C 
ATOM     33 C33  LIG A   1      19.726  25.532  14.190  1.00 20.00    -0.040 C 
ATOM     34 C34  LIG A   1      20.454  26.442  13.196  1.00 20.00    -0.008 C 
ATOM     35 N35  LIG A   1      21.354  27.391  13.845  1.00 20.00    -0.330 NA
ATOM     36 C36  LIG A   1      18.622  18.279   8.893  1.00 20.00    +0.004 A 
ATOM     37 C37  LIG A   1      18.954  16.919   8.749  1.00 20.00    +0.133 A 
ATOM     38 O38  LIG A   1      17.924  16.116   8.304  1.00 20.00    -0.456 OA
ATOM     39 C39  LIG A   1      18.730  13.606   3.809  1.00 20.00    +0.246 C 
ATOM     40 O40  LIG A   1      18.072  14.148   2.913  1.00 20.00    -0.273 OA
ATOM     41 C41  LIG A   1      18.811  12.030   3.873  1.00 20.00    +0.088 C 
ATOM     42 N42  LIG A   1      19.966  11.622   3.040  1.00 20.00    -0.320 NA
ATOM     43 N43  LIG A   1      18.511  15.136   6.179  1.00 20.00    -0.328 NA
ATOM     44 C44  LIG A   1      19.192  16.219   6.886  1.00 20.00    +0.016 C 
ATOM     45 C45  LIG A   1      19.328  15.961   8.394  1.00 20.00    +0.059 C 
ATOM     46 O46  LIG A   1      20.124  16.955   9.039  1.00 20.00    -0.378 OA
ATOM     47 C47  LIG A   1      19.411  18.159   9.312  1.00 20.00    +0.070 C 
ATOM     48 C48  LIG A   1      20.337  19.142  10.022  1.00 20.00    +0.067 C 
ATOM     49 O49  LIG A   1      19.640  20.329  10.383  1.00 20.00    -0.394 OA
ATOM     50 H50  LIG A   1      18.302  10.018   1.829  1.00 20.00    +0.023 H 
ATOM     51 H51  LIG A   1      16.729   9.519   2.436  1.00 20.00    +0.023 H 
ATOM     52 H52  LIG A   1      18.166   9.282   3.443  1.00 20.00    +0.023 H 
ATOM     53 H53  LIG A   1      17.065  11.985   2.547  1.00 20.00    +0.032 H 
ATOM     54 H54  LIG A   1      16.546  10.317   5.041  1.00 20.00    +0.032 H 
ATOM     55 H55  LIG A   1      15.386  11.009   3.927  1.00 20.00    +0.032 H 
ATOM     56 H56  LIG A   1      16.891  11.391   7.110  1.00 20.00    +0.063 H 
ATOM     57 H57  LIG A   1      17.480  13.457   8.268  1.00 20.00    +0.063 H 
ATOM     58 H58  LIG A   1      16.039  15.746   4.901  1.00 20.00    +0.063 H 
ATOM     59 H59  LIG A   1      15.361  13.689   3.789  1.00 20.00    +0.063 H 
ATOM     60 H60  LIG A   1      19.359  17.191   6.264  1.00 20.00    +0.072 H 
ATOM     61 H61  LIG A   1      21.425  14.149   4.445  1.00 20.00    +0.050 H 
ATOM     62 H62  LIG A   1      20.747  12.844   5.413  1.00 20.00    +0.050 H 
ATOM     63 H63  LIG A   1      21.252  15.689   6.458  1.00 20.00    +0.029 H 
ATOM     64 H64  LIG A   1      22.333  14.336   6.647  1.00 20.00    +0.029 H 
ATOM     65 H65  LIG A   1      19.501  13.959   7.603  1.00 20.00    +0.028 H 
ATOM     66 H66  LIG A   1      20.929  13.111   8.040  1.00 20.00    +0.028 H 
ATOM     67 H67  LIG A   1      21.802  15.011   9.243  1.00 20.00    +0.047 H 
ATOM     68 H68  LIG A   1      20.496  13.458  11.864  1.00 20.00    +0.296 HD
ATOM     69 H69  LIG A   1      22.220  17.140   9.643  1.00 20.00    +0.063 H 
ATOM     70 H70  LIG A   1      21.651  19.477   9.793  1.00 20.00    +0.064 H 
ATOM     71 H71  LIG A   1      18.177  20.697   9.471  1.00 20.00    +0.160 HD
ATOM     72 H72  LIG A   1      19.590  22.577   9.618  1.00 20.00    +0.049 H 
ATOM     73 H73  LIG A   1      21.021  21.576   9.597  1.00 20.00    +0.049 H 
ATOM     74 H74  LIG A   1      20.258  20.574  11.837  1.00 20.00    +0.030 H 
ATOM     75 H75  LIG A   1      18.865  21.645  11.795  1.00 20.00    +0.030 H 
ATOM     76 H76  LIG A   1      21.800  22.524  11.811  1.00 20.00    +0.043 H 
ATOM     77 H77  LIG A   1      20.415  23.630  11.723  1.00 20.00    +0.043 H 
ATOM     78 H78  LIG A   1      20.854  21.696  13.902  1.00 20.00    +0.122 HD
ATOM     79 H79  LIG A   1      22.132  24.144  13.519  1.00 20.00    +0.043 H 
ATOM     80 H80  LIG A   1      22.137  23.091  14.915  1.00 20.00    +0.043 H 
ATOM     81 H81  LIG A   1      21.304  25.225  15.647  1.00 20.00    +0.028 H 
ATOM     82 H82  LIG A   1      20.000  24.062  15.735  1.00 20.00    +0.028 H 
ATOM     83 H83  LIG A   1      19.134  26.152  14.876  1.00 20.00    +0.028 H 
ATOM     84 H84  LIG A   1      19.002  24.921  13.636  1.00 20.00    +0.028 H 
ATOM     85 H85  LIG A   1      19.709  27.011  12.625  1.00 20.00    +0.043 H 
ATOM     86 H86  LIG A   1      21.021  25.856  12.465  1.00 20.00    +0.043 H 
ATOM     87 H87  LIG A   1      22.062  26.894  14.383  1.00 20.00    +0.118 HD
ATOM     88 H88  LIG A   1      20.828  27.951  14.517  1.00 20.00    +0.118 HD
ATOM     89 H89  LIG A   1      17.605  18.588   8.656  1.00 20.00    +0.068 H 
ATOM     90 H90  LIG A   1      18.989  11.710   4.905  1.00 20.00    +0.057 H 
ATOM     91 H91  LIG A   1      20.803  12.150   3.268  1.00 20.00    +0.119 HD
ATOM     92 H92  LIG A   1      20.178  10.639   3.196  1.00 20.00    +0.119 HD
ATOM     93 H93  LIG A   1      19.025  14.265   6.312  1.00 20.00    +0.118 HD
ATOM     94 H94  LIG A   1      17.586  14.986   6.579  1.00 20.00    +0.118 HD
ATOM     95 H95  LIG A   1      20.186  16.370   6.448  1.00 20.00    +0.045 H 
ATOM     96 H96  LIG A   1      18.643  17.152   6.711  1.00 20.00    +0.045 H 
ATOM     97 H97  LIG A   1      19.842  15.005   8.549  1.00 20.00    +0.058 H 
ATOM     98 H98  LIG A   1      18.346  15.882   8.878  1.00 20.00    +0.058 H 
ATOM     99 H99  LIG A   1      19.041  18.612   8.387  1.00 20.00    +0.059 H 
ATOM    100 H100 LIG A   1      18.544  17.943   9.948  1.00 20.00    +0.059 H 
ATOM    101 H101 LIG A   1      21.172  19.415   9.367  1.00 20.00    +0.059 H 
ATOM    102 H102 LIG A   1      20.772  18.695  10.922  1.00 20.00    +0.059 H 
ATOM    103 H103 LIG A   1      19.007  20.094  11.084  1.00 20.00    +0.210 HD
ENDROOT
TORSDOF 0
                                                                                                          
ENDMDL
MODEL 8
REMARK VINA RESULT:   -10.664      3.192     10.394
REMARK INTER + INTRA:         -10.664
REMARK INTER:                 -10.664
REMARK INTRA:                   0.000
REMARK UNBOUND:                 0.000
ROOT
ATOM      1 C1   LIG A   1      24.221  24.753  13.818  1.00 20.00    -0.060 C 
ATOM      2 C2   LIG A   1      23.069  23.960  13.174  1.00 20.00    -0.016 C 
ATOM      3 C3   LIG A   1      22.414  24.904  12.108  1.00 20.00    -0.023 C 
ATOM      4 C4   LIG A   1      21.449  24.210  11.188  1.00 20.00    -0.048 A 
ATOM      5 C5   LIG A   1      21.830  23.932   9.872  1.00 20.00    -0.058 A 
ATOM      6 C6   LIG A   1      21.223  22.883   9.192  1.00 20.00    -0.051 A 
ATOM      7 C7   LIG A   1      20.292  22.085   9.864  1.00 20.00    +0.017 A 
ATOM      8 C8   LIG A   1      19.699  22.571  11.036  1.00 20.00    -0.051 A 
ATOM      9 C9   LIG A   1      20.276  23.649  11.699  1.00 20.00    -0.058 A 
ATOM     10 C10  LIG A   1      20.135  20.663   9.493  1.00 20.00    +0.140 C 
ATOM     11 C11  LIG A   1      20.356  19.670  10.385  1.00 20.00    +0.047 C 
ATOM     12 C12  LIG A   1      21.095  19.750  11.688  1.00 20.00    +0.256 C 
ATOM     13 O13  LIG A   1      20.872  18.894  12.542  1.00 20.00    -0.269 OA
ATOM     14 N14  LIG A   1      22.243  20.535  11.654  1.00 20.00    -0.278 NA
ATOM     15 C15  LIG A   1      23.467  19.866  11.187  1.00 20.00    +0.029 C 
ATOM     16 C16  LIG A   1      23.367  19.033   9.885  1.00 20.00    -0.034 C 
ATOM     17 C17  LIG A   1      23.233  19.914   8.639  1.00 20.00    -0.034 C 
ATOM     18 C18  LIG A   1      22.721  19.209   7.367  1.00 20.00    +0.085 C 
ATOM     19 C19  LIG A   1      22.844  20.182   6.202  1.00 20.00    +0.311 C 
ATOM     20 O20  LIG A   1      22.248  21.237   6.048  1.00 20.00    -0.252 OA
ATOM     21 O21  LIG A   1      23.756  19.785   5.287  1.00 20.00    -0.481 OA
ATOM     22 C22  LIG A   1      21.345  18.547   7.365  1.00 20.00    +0.009 A 
ATOM     23 C23  LIG A   1      21.293  17.199   6.962  1.00 20.00    -0.052 A 
ATOM     24 C24  LIG A   1      20.080  16.507   6.831  1.00 20.00    -0.038 A 
ATOM     25 C25  LIG A   1      18.856  17.139   7.050  1.00 20.00    +0.038 A 
ATOM     26 N26  LIG A   1      17.624  16.495   6.995  1.00 20.00    -0.385 NA
ATOM     27 C27  LIG A   1      17.433  15.204   6.347  1.00 20.00    +0.016 C 
ATOM     28 C28  LIG A   1      17.440  15.331   4.824  1.00 20.00    -0.023 C 
ATOM     29 C29  LIG A   1      17.222  13.966   4.169  1.00 20.00    -0.003 C 
ATOM     30 N30  LIG A   1      17.166  14.111   2.715  1.00 20.00    -0.317 NA
ATOM     31 C31  LIG A   1      17.043  12.824   2.029  1.00 20.00    -0.005 C 
ATOM     32 C32  LIG A   1      15.749  12.762   1.208  1.00 20.00    -0.039 C 
ATOM     33 C33  LIG A   1      14.454  12.774   2.032  1.00 20.00    -0.040 C 
ATOM     34 C34  LIG A   1      14.285  11.600   3.002  1.00 20.00    -0.008 C 
ATOM     35 N35  LIG A   1      14.224  10.307   2.328  1.00 20.00    -0.330 NA
ATOM     36 C36  LIG A   1      18.899  18.467   7.483  1.00 20.00    +0.004 A 
ATOM     37 C37  LIG A   1      20.112  19.160   7.653  1.00 20.00    +0.133 A 
ATOM     38 O38  LIG A   1      19.981  20.450   8.120  1.00 20.00    -0.456 OA
ATOM     39 C39  LIG A   1      22.310  21.509  12.660  1.00 20.00    +0.246 C 
ATOM     40 O40  LIG A   1      21.454  21.596  13.550  1.00 20.00    -0.273 OA
ATOM     41 C41  LIG A   1      23.508  22.537  12.628  1.00 20.00    +0.088 C 
ATOM     42 N42  LIG A   1      24.591  21.964  13.462  1.00 20.00    -0.320 NA
ATOM     43 N43  LIG A   1      21.074  20.659  10.261  1.00 20.00    -0.328 NA
ATOM     44 C44  LIG A   1      20.764  19.433   9.527  1.00 20.00    +0.016 C 
ATOM     45 C45  LIG A   1      21.061  19.541   8.024  1.00 20.00    +0.059 C 
ATOM     46 O46  LIG A   1      20.895  18.292   7.354  1.00 20.00    -0.378 OA
ATOM     47 C47  LIG A   1      19.534  17.985   7.061  1.00 20.00    +0.070 C 
ATOM     48 C48  LIG A   1      19.465  16.650   6.325  1.00 20.00    +0.067 C 
ATOM     49 O49  LIG A   1      18.129  16.345   5.945  1.00 20.00    -0.394 OA
ATOM     50 H50  LIG A   1      24.596  24.252  14.716  1.00 20.00    +0.023 H 
ATOM     51 H51  LIG A   1      23.881  25.747  14.130  1.00 20.00    +0.023 H 
ATOM     52 H52  LIG A   1      25.053  24.887  13.118  1.00 20.00    +0.023 H 
ATOM     53 H53  LIG A   1      22.325  23.808  13.966  1.00 20.00    +0.032 H 
ATOM     54 H54  LIG A   1      23.203  25.380  11.511  1.00 20.00    +0.032 H 
ATOM     55 H55  LIG A   1      21.891  25.724  12.617  1.00 20.00    +0.032 H 
ATOM     56 H56  LIG A   1      22.683  24.430   9.418  1.00 20.00    +0.063 H 
ATOM     57 H57  LIG A   1      21.602  22.602   8.214  1.00 20.00    +0.063 H 
ATOM     58 H58  LIG A   1      18.915  22.008  11.542  1.00 20.00    +0.063 H 
ATOM     59 H59  LIG A   1      19.929  23.895  12.701  1.00 20.00    +0.063 H 
ATOM     60 H60  LIG A   1      20.168  18.632  10.129  1.00 20.00    +0.072 H 
ATOM     61 H61  LIG A   1      23.778  19.193  11.996  1.00 20.00    +0.050 H 
ATOM     62 H62  LIG A   1      24.267  20.601  11.059  1.00 20.00    +0.050 H 
ATOM     63 H63  LIG A   1      22.563  18.296   9.953  1.00 20.00    +0.029 H 
ATOM     64 H64  LIG A   1      24.290  18.448   9.784  1.00 20.00    +0.029 H 
ATOM     65 H65  LIG A   1      22.623  20.779   8.854  1.00 20.00    +0.028 H 
ATOM     66 H66  LIG A   1      24.226  20.335   8.425  1.00 20.00    +0.028 H 
ATOM     67 H67  LIG A   1      23.461  18.417   7.179  1.00 20.00    +0.047 H 
ATOM     68 H68  LIG A   1      23.715  20.482   4.598  1.00 20.00    +0.296 HD
ATOM     69 H69  LIG A   1      22.209  16.656   6.733  1.00 20.00    +0.063 H 
ATOM     70 H70  LIG A   1      20.125  15.463   6.539  1.00 20.00    +0.064 H 
ATOM     71 H71  LIG A   1      16.844  17.136   6.859  1.00 20.00    +0.160 HD
ATOM     72 H72  LIG A   1      16.456  14.820   6.664  1.00 20.00    +0.049 H 
ATOM     73 H73  LIG A   1      18.167  14.471   6.695  1.00 20.00    +0.049 H 
ATOM     74 H74  LIG A   1      18.391  15.757   4.482  1.00 20.00    +0.030 H 
ATOM     75 H75  LIG A   1      16.655  16.028   4.511  1.00 20.00    +0.030 H 
ATOM     76 H76  LIG A   1      18.039  13.295   4.457  1.00 20.00    +0.043 H 
ATOM     77 H77  LIG A   1      16.282  13.536   4.532  1.00 20.00    +0.043 H 
ATOM     78 H78  LIG A   1      18.009  14.590   2.391  1.00 20.00    +0.122 HD
ATOM     79 H79  LIG A   1      17.111  11.972   2.715  1.00 20.00    +0.043 H 
ATOM     80 H80  LIG A   1      17.892  12.719   1.341  1.00 20.00    +0.043 H 
ATOM     81 H81  LIG A   1      15.778  11.868   0.571  1.00 20.00    +0.028 H 
ATOM     82 H82  LIG A   1      15.724  13.616   0.515  1.00 20.00    +0.028 H 
ATOM     83 H83  LIG A   1      13.604  12.789   1.337  1.00 20.00    +0.028 H 
ATOM     84 H84  LIG A   1      14.393  13.708   2.603  1.00 20.00    +0.028 H 
ATOM     85 H85  LIG A   1      13.354  11.738   3.566  1.00 20.00    +0.043 H 
ATOM     86 H86  LIG A   1      15.093  11.579   3.741  1.00 20.00    +0.043 H 
ATOM     87 H87  LIG A   1      15.077  10.146   1.795  1.00 20.00    +0.118 HD
ATOM     88 H88  LIG A   1      13.462  10.315   1.648  1.00 20.00    +0.118 HD
ATOM     89 H89  LIG A   1      17.972  18.987   7.720  1.00 20.00    +0.068 H 
ATOM     90 H90  LIG A   1      23.874  22.647  11.602  1.00 20.00    +0.057 H 
ATOM     91 H91  LIG A   1      24.787  20.998  13.217  1.00 20.00    +0.119 HD
ATOM     92 H92  LIG A   1      25.452  22.490  13.324  1.00 20.00    +0.119 HD
ATOM     93 H93  LIG A   1      22.060  20.889  10.142  1.00 20.00    +0.118 HD
ATOM     94 H94  LIG A   1      20.549  21.441   9.870  1.00 20.00    +0.118 HD
ATOM     95 H95  LIG A   1      21.335  18.601   9.956  1.00 20.00    +0.045 H 
ATOM     96 H96  LIG A   1      19.708  19.186   9.687  1.00 20.00    +0.045 H 
ATOM     97 H97  LIG A   1      22.109  19.830   7.886  1.00 20.00    +0.058 H 
ATOM     98 H98  LIG A   1      20.446  20.316   7.548  1.00 20.00    +0.058 H 
ATOM     99 H99  LIG A   1      18.941  17.924   7.979  1.00 20.00    +0.059 H 
ATOM    100 H100 LIG A   1      19.099  18.774   6.435  1.00 20.00    +0.059 H 
ATOM    101 H101 LIG A   1      19.835  15.845   6.969  1.00 20.00    +0.059 H 
ATOM    102 H102 LIG A   1      20.098  16.660   5.431  1.00 20.00    +0.059 H 
ATOM    103 H103 LIG A   1      17.871  16.980   5.253  1.00 20.00    +0.210 HD
ENDROOT
TORSDOF 0
                                                                                                          
ENDMDL
MODEL 9
REMARK VINA RESULT:   -10.318      5.674      8.313
REMARK INTER + INTRA:         -10.318
REMARK INTER:                 -10.318
REMARK INTRA:                   0.000
REMARK UNBOUND:                 0.000
ROOT
ATOM      1 C1   LIG A   1      11.444   8.902  -1.084  1.00 20.00    -0.060 C 
ATOM      2 C2   LIG A   1      11.998  10.193  -0.454  1.00 20.00    -0.016 C 
ATOM      3 C3   LIG A   1      10.831  10.823   0.381  1.00 20.00    -0.023 C 
ATOM      4 C4   LIG A   1      11.262  11.942   1.287  1.00 20.00    -0.048 A 
ATOM      5 C5   LIG A   1      11.360  11.715   2.663  1.00 20.00    -0.058 A 
ATOM      6 C6   LIG A   1      12.215  12.500   3.425  1.00 20.00    -0.051 A 
ATOM      7 C7   LIG A   1      13.012  13.456   2.788  1.00 20.00    +0.017 A 
ATOM      8 C8   LIG A   1      12.664  13.881   1.499  1.00 20.00    -0.051 A 
ATOM      9 C9   LIG A   1      11.773  13.123   0.745  1.00 20.00    -0.058 A 
ATOM     10 C10  LIG A   1      14.330  13.814   3.351  1.00 20.00    +0.140 C 
ATOM     11 C11  LIG A   1      15.472  13.634   2.648  1.00 20.00    +0.047 C 
ATOM     12 C12  LIG A   1      15.683  12.779   1.435  1.00 20.00    +0.256 C 
ATOM     13 O13  LIG A   1      16.639  13.026   0.702  1.00 20.00    -0.269 OA
ATOM     14 N14  LIG A   1      15.026  11.553   1.471  1.00 20.00    -0.278 NA
ATOM     15 C15  LIG A   1      15.733  10.464   2.162  1.00 20.00    +0.029 C 
ATOM     16 C16  LIG A   1      16.328  10.778   3.557  1.00 20.00    -0.034 C 
ATOM     17 C17  LIG A   1      15.248  10.916   4.634  1.00 20.00    -0.034 C 
ATOM     18 C18  LIG A   1      15.679  11.619   5.936  1.00 20.00    +0.085 C 
ATOM     19 C19  LIG A   1      14.548  11.485   6.946  1.00 20.00    +0.311 C 
ATOM     20 O20  LIG A   1      13.426  11.962   6.874  1.00 20.00    -0.252 OA
ATOM     21 O21  LIG A   1      14.882  10.712   8.003  1.00 20.00    -0.481 OA
ATOM     22 C22  LIG A   1      16.185  13.059   5.892  1.00 20.00    +0.009 A 
ATOM     23 C23  LIG A   1      17.438  13.307   6.487  1.00 20.00    -0.052 A 
ATOM     24 C24  LIG A   1      17.969  14.601   6.591  1.00 20.00    -0.038 A 
ATOM     25 C25  LIG A   1      17.258  15.716   6.150  1.00 20.00    +0.038 A 
ATOM     26 N26  LIG A   1      17.753  17.016   6.171  1.00 20.00    -0.385 NA
ATOM     27 C27  LIG A   1      18.895  17.416   6.983  1.00 20.00    +0.016 C 
ATOM     28 C28  LIG A   1      18.523  17.529   8.461  1.00 20.00    -0.023 C 
ATOM     29 C29  LIG A   1      19.733  17.965   9.288  1.00 20.00    -0.003 C 
ATOM     30 N30  LIG A   1      19.348  18.133  10.689  1.00 20.00    -0.317 NA
ATOM     31 C31  LIG A   1      20.487  18.469  11.546  1.00 20.00    -0.005 C 
ATOM     32 C32  LIG A   1      20.280  19.829  12.224  1.00 20.00    -0.039 C 
ATOM     33 C33  LIG A   1      20.269  21.035  11.275  1.00 20.00    -0.040 C 
ATOM     34 C34  LIG A   1      21.560  21.256  10.481  1.00 20.00    -0.008 C 
ATOM     35 N35  LIG A   1      22.713  21.530  11.334  1.00 20.00    -0.330 NA
ATOM     36 C36  LIG A   1      16.030  15.477   5.528  1.00 20.00    +0.004 A 
ATOM     37 C37  LIG A   1      15.503  14.180   5.385  1.00 20.00    +0.133 A 
ATOM     38 O38  LIG A   1      14.299  14.114   4.716  1.00 20.00    -0.456 OA
ATOM     39 C39  LIG A   1      14.240  11.282   0.342  1.00 20.00    +0.246 C 
ATOM     40 O40  LIG A   1      14.211  12.039  -0.637  1.00 20.00    -0.273 OA
ATOM     41 C41  LIG A   1      13.351   9.977   0.346  1.00 20.00    +0.088 C 
ATOM     42 N42  LIG A   1      14.162   8.900  -0.271  1.00 20.00    -0.320 NA
ATOM     43 N43  LIG A   1      14.556  12.818   2.697  1.00 20.00    -0.328 NA
ATOM     44 C44  LIG A   1      15.607  13.336   3.571  1.00 20.00    +0.016 C 
ATOM     45 C45  LIG A   1      15.288  13.163   5.063  1.00 20.00    +0.059 C 
ATOM     46 O46  LIG A   1      16.387  13.536   5.894  1.00 20.00    -0.378 OA
ATOM     47 C47  LIG A   1      16.500  14.944   6.083  1.00 20.00    +0.070 C 
ATOM     48 C48  LIG A   1      17.683  15.236   7.002  1.00 20.00    +0.067 C 
ATOM     49 O49  LIG A   1      17.782  16.628   7.279  1.00 20.00    -0.394 OA
ATOM     50 H50  LIG A   1      12.121   8.512  -1.851  1.00 20.00    +0.023 H 
ATOM     51 H51  LIG A   1      10.484   9.092  -1.578  1.00 20.00    +0.023 H 
ATOM     52 H52  LIG A   1      11.285   8.126  -0.328  1.00 20.00    +0.023 H 
ATOM     53 H53  LIG A   1      12.199  10.876  -1.289  1.00 20.00    +0.032 H 
ATOM     54 H54  LIG A   1      10.348  10.039   0.980  1.00 20.00    +0.032 H 
ATOM     55 H55  LIG A   1      10.055  11.197  -0.300  1.00 20.00    +0.032 H 
ATOM     56 H56  LIG A   1      10.886  10.852   3.125  1.00 20.00    +0.063 H 
ATOM     57 H57  LIG A   1      12.371  12.246   4.470  1.00 20.00    +0.063 H 
ATOM     58 H58  LIG A   1      13.217  14.678   1.003  1.00 20.00    +0.063 H 
ATOM     59 H59  LIG A   1      11.660  13.348  -0.314  1.00 20.00    +0.063 H 
ATOM     60 H60  LIG A   1      16.430  13.967   3.038  1.00 20.00    +0.072 H 
ATOM     61 H61  LIG A   1      16.557  10.165   1.502  1.00 20.00    +0.050 H 
ATOM     62 H62  LIG A   1      15.074   9.597   2.262  1.00 20.00    +0.050 H 
ATOM     63 H63  LIG A   1      16.979  11.655   3.517  1.00 20.00    +0.029 H 
ATOM     64 H64  LIG A   1      16.982   9.944   3.844  1.00 20.00    +0.029 H 
ATOM     65 H65  LIG A   1      14.370  11.397   4.226  1.00 20.00    +0.028 H 
ATOM     66 H66  LIG A   1      14.903   9.903   4.886  1.00 20.00    +0.028 H 
ATOM     67 H67  LIG A   1      16.502  10.998   6.320  1.00 20.00    +0.047 H 
ATOM     68 H68  LIG A   1      14.082  10.730   8.570  1.00 20.00    +0.296 HD
ATOM     69 H69  LIG A   1      18.028  12.486   6.892  1.00 20.00    +0.063 H 
ATOM     70 H70  LIG A   1      18.951  14.707   7.042  1.00 20.00    +0.064 H 
ATOM     71 H71  LIG A   1      17.021  17.723   6.124  1.00 20.00    +0.160 HD
ATOM     72 H72  LIG A   1      19.222  18.400   6.626  1.00 20.00    +0.049 H 
ATOM     73 H73  LIG A   1      19.747  16.747   6.830  1.00 20.00    +0.049 H 
ATOM     74 H74  LIG A   1      18.148  16.569   8.834  1.00 20.00    +0.030 H 
ATOM     75 H75  LIG A   1      17.707  18.251   8.579  1.00 20.00    +0.030 H 
ATOM     76 H76  LIG A   1      20.523  17.212   9.194  1.00 20.00    +0.043 H 
ATOM     77 H77  LIG A   1      20.117  18.914   8.897  1.00 20.00    +0.043 H 
ATOM     78 H78  LIG A   1      18.913  17.271  11.025  1.00 20.00    +0.122 HD
ATOM     79 H79  LIG A   1      21.442  18.443  11.008  1.00 20.00    +0.043 H 
ATOM     80 H80  LIG A   1      20.566  17.703  12.328  1.00 20.00    +0.043 H 
ATOM     81 H81  LIG A   1      21.056  19.963  12.989  1.00 20.00    +0.028 H 
ATOM     82 H82  LIG A   1      19.327  19.813  12.773  1.00 20.00    +0.028 H 
ATOM     83 H83  LIG A   1      20.052  21.936  11.865  1.00 20.00    +0.028 H 
ATOM     84 H84  LIG A   1      19.438  20.933  10.565  1.00 20.00    +0.028 H 
ATOM     85 H85  LIG A   1      21.420  22.110   9.807  1.00 20.00    +0.043 H 
ATOM     86 H86  LIG A   1      21.785  20.393   9.845  1.00 20.00    +0.043 H 
ATOM     87 H87  LIG A   1      22.873  20.753  11.972  1.00 20.00    +0.118 HD
ATOM     88 H88  LIG A   1      22.515  22.343  11.919  1.00 20.00    +0.118 HD
ATOM     89 H89  LIG A   1      15.462  16.311   5.117  1.00 20.00    +0.068 H 
ATOM     90 H90  LIG A   1      13.114   9.694   1.376  1.00 20.00    +0.057 H 
ATOM     91 H91  LIG A   1      15.090   8.843   0.136  1.00 20.00    +0.119 HD
ATOM     92 H92  LIG A   1      13.712   7.999  -0.124  1.00 20.00    +0.119 HD
ATOM     93 H93  LIG A   1      14.414  11.826   2.884  1.00 20.00    +0.118 HD
ATOM     94 H94  LIG A   1      13.671  13.278   2.907  1.00 20.00    +0.118 HD
ATOM     95 H95  LIG A   1      16.553  12.832   3.337  1.00 20.00    +0.045 H 
ATOM     96 H96  LIG A   1      15.766  14.395   3.339  1.00 20.00    +0.045 H 
ATOM     97 H97  LIG A   1      15.091  12.104   5.267  1.00 20.00    +0.058 H 
ATOM     98 H98  LIG A   1      14.386  13.721   5.348  1.00 20.00    +0.058 H 
ATOM     99 H99  LIG A   1      16.647  15.456   5.127  1.00 20.00    +0.059 H 
ATOM    100 H100 LIG A   1      15.579  15.335   6.532  1.00 20.00    +0.059 H 
ATOM    101 H101 LIG A   1      18.616  14.909   6.531  1.00 20.00    +0.059 H 
ATOM    102 H102 LIG A   1      17.593  14.688   7.946  1.00 20.00    +0.059 H 
ATOM    103 H103 LIG A   1      17.020  16.869   7.835  1.00 20.00    +0.210 HD
ENDROOT
TORSDOF 0
                                                                                                          
ENDMDL
